
                                 *****************
                                 * O   R   C   A *
                                 *****************

                                            #,                                       
                                            ###                                      
                                            ####                                     
                                            #####                                    
                                            ######                                   
                                           ########,                                 
                                     ,,################,,,,,                         
                               ,,#################################,,                 
                          ,,##########################################,,             
                       ,#########################################, ''#####,          
                    ,#############################################,,   '####,        
                  ,##################################################,,,,####,       
                ,###########''''           ''''###############################       
              ,#####''   ,,,,##########,,,,          '''####'''          '####       
            ,##' ,,,,###########################,,,                        '##       
           ' ,,###''''                  '''############,,,                           
         ,,##''                                '''############,,,,        ,,,,,,###''
      ,#''                                            '''#######################'''  
     '                                                          ''''####''''         
             ,#######,   #######,   ,#######,      ##                                
            ,#'     '#,  ##    ##  ,#'     '#,    #''#        ######   ,####,        
            ##       ##  ##   ,#'  ##            #'  '#       #        #'  '#        
            ##       ##  #######   ##           ,######,      #####,   #    #        
            '#,     ,#'  ##    ##  '#,     ,#' ,#      #,         ##   #,  ,#        
             '#######'   ##     ##  '#######'  #'      '#     #####' # '####'        



                  #######################################################
                  #                        -***-                        #
                  #          Department of theory and spectroscopy      #
                  #    Directorship and core code : Frank Neese         #
                  #        Max Planck Institute fuer Kohlenforschung    #
                  #                Kaiser Wilhelm Platz 1               #
                  #                 D-45470 Muelheim/Ruhr               #
                  #                      Germany                        #
                  #                                                     #
                  #                  All rights reserved                #
                  #                        -***-                        #
                  #######################################################


                         Program Version 5.0.3 -  RELEASE  -


 With contributions from (in alphabetic order):
   Daniel Aravena         : Magnetic Suceptibility
   Michael Atanasov       : Ab Initio Ligand Field Theory (pilot matlab implementation)
   Alexander A. Auer      : GIAO ZORA, VPT2 properties, NMR spectrum
   Ute Becker             : Parallelization
   Giovanni Bistoni       : ED, misc. LED, open-shell LED, HFLD
   Martin Brehm           : Molecular dynamics
   Dmytro Bykov           : SCF Hessian
   Vijay G. Chilkuri      : MRCI spin determinant printing, contributions to CSF-ICE
   Dipayan Datta          : RHF DLPNO-CCSD density
   Achintya Kumar Dutta   : EOM-CC, STEOM-CC
   Dmitry Ganyushin       : Spin-Orbit,Spin-Spin,Magnetic field MRCI
   Miquel Garcia          : C-PCM and meta-GGA Hessian, CC/C-PCM, Gaussian charge scheme
   Yang Guo               : DLPNO-NEVPT2, F12-NEVPT2, CIM, IAO-localization
   Andreas Hansen         : Spin unrestricted coupled pair/coupled cluster methods
   Benjamin Helmich-Paris : MC-RPA, TRAH-SCF, COSX integrals
   Lee Huntington         : MR-EOM, pCC
   Robert Izsak           : Overlap fitted RIJCOSX, COSX-SCS-MP3, EOM
   Marcus Kettner         : VPT2
   Christian Kollmar      : KDIIS, OOCD, Brueckner-CCSD(T), CCSD density, CASPT2, CASPT2-K
   Simone Kossmann        : Meta GGA functionals, TD-DFT gradient, OOMP2, MP2 Hessian
   Martin Krupicka        : Initial AUTO-CI
   Lucas Lang             : DCDCAS
   Marvin Lechner         : AUTO-CI (C++ implementation), FIC-MRCC
   Dagmar Lenk            : GEPOL surface, SMD
   Dimitrios Liakos       : Extrapolation schemes; Compound Job, initial MDCI parallelization
   Dimitrios Manganas     : Further ROCIS development; embedding schemes
   Dimitrios Pantazis     : SARC Basis sets
   Anastasios Papadopoulos: AUTO-CI, single reference methods and gradients
   Taras Petrenko         : DFT Hessian,TD-DFT gradient, ASA, ECA, R-Raman, ABS, FL, XAS/XES, NRVS
   Peter Pinski           : DLPNO-MP2, DLPNO-MP2 Gradient
   Christoph Reimann      : Effective Core Potentials
   Marius Retegan         : Local ZFS, SOC
   Christoph Riplinger    : Optimizer, TS searches, QM/MM, DLPNO-CCSD(T), (RO)-DLPNO pert. Triples
   Tobias Risthaus        : Range-separated hybrids, TD-DFT gradient, RPA, STAB
   Michael Roemelt        : Original ROCIS implementation
   Masaaki Saitow         : Open-shell DLPNO-CCSD energy and density
   Barbara Sandhoefer     : DKH picture change effects
   Avijit Sen             : IP-ROCIS
   Kantharuban Sivalingam : CASSCF convergence, NEVPT2, FIC-MRCI
   Bernardo de Souza      : ESD, SOC TD-DFT
   Georgi Stoychev        : AutoAux, RI-MP2 NMR, DLPNO-MP2 response
   Willem Van den Heuvel  : Paramagnetic NMR
   Boris Wezisla          : Elementary symmetry handling
   Frank Wennmohs         : Technical directorship


 We gratefully acknowledge several colleagues who have allowed us to
 interface, adapt or use parts of their codes:
   Stefan Grimme, W. Hujo, H. Kruse, P. Pracht,  : VdW corrections, initial TS optimization,
                  C. Bannwarth, S. Ehlert          DFT functionals, gCP, sTDA/sTD-DF
   Ed Valeev, F. Pavosevic, A. Kumar             : LibInt (2-el integral package), F12 methods
   Garnet Chan, S. Sharma, J. Yang, R. Olivares  : DMRG
   Ulf Ekstrom                                   : XCFun DFT Library
   Mihaly Kallay                                 : mrcc  (arbitrary order and MRCC methods)
   Jiri Pittner, Ondrej Demel                    : Mk-CCSD
   Frank Weinhold                                : gennbo (NPA and NBO analysis)
   Christopher J. Cramer and Donald G. Truhlar   : smd solvation model
   Lars Goerigk                                  : TD-DFT with DH, B97 family of functionals
   V. Asgeirsson, H. Jonsson                     : NEB implementation
   FAccTs GmbH                                   : IRC, NEB, NEB-TS, DLPNO-Multilevel, CI-OPT
                                                   MM, QMMM, 2- and 3-layer-ONIOM, Crystal-QMMM,
                                                   LR-CPCM, SF, NACMEs, symmetry and pop. for TD-DFT,
                                                   nearIR, NL-DFT gradient (VV10), updates on ESD,
                                                   ML-optimized integration grids
   S Lehtola, MJT Oliveira, MAL Marques          : LibXC Library
   Liviu Ungur et al                             : ANISO software


 Your calculation uses the libint2 library for the computation of 2-el integrals
 For citations please refer to: http://libint.valeyev.net

 Your ORCA version has been built with support for libXC version: 5.1.0
 For citations please refer to: https://tddft.org/programs/libxc/

 This ORCA versions uses:
   CBLAS   interface :  Fast vector & matrix operations
   LAPACKE interface :  Fast linear algebra routines
   SCALAPACK package :  Parallel linear algebra routines
   Shared memory     :  Shared parallel matrices
   BLAS/LAPACK       :  OpenBLAS 0.3.19 NO_AFFINITY VORTEX SINGLE_THREADED
        Core in use  :  VORTEX
   Copyright (c) 2011-2014, The OpenBLAS Project


Your calculation utilizes the atom-pairwise dispersion correction
with the Becke-Johnson damping scheme (D3BJ)
Cite in your paper:
S.Grimme, S.Ehrlich, L.Goerigk, J Comput Chem, (2011), 32, 1456–1465 
S.Grimme, J.Antony, S.Ehrlich and H.Krieg, J.Chem.Phys., 132, (2010), 154104 
   

================================================================================

----- Orbital basis set information -----
Your calculation utilizes the basis: 6-311G
   H, Li - Ne  : R. Krishnan, J. S. Binkley, R. Seeger and J. A. Pople, J. Chem. Phys. 72, 650 (1980).
   Na - Ar     : A. D. McLean and G. S. Chandler J. Chem. Phys. 72, 5639, (1980).
   K  - Ca     : J.-P. Blaudeau, M. P. McGrath, L. A. Curtiss and L. Radom, J. Chem. Phys. 107, 5016 (1997).
   Ga - Kr     : L. A. Curtiss, M. P. McGrath, J.-P. Blandeau, N. E. Davis, R. C. Binning and L. Radom, J. Chem. Phys. 103, 6104 (1995).

----- AuxJ basis set information -----
Your calculation utilizes the AutoAux generation procedure.
  G. L. Stoychev, A. A. Auer, F. Neese, J. Chem. Theory Comput. 13, 554 (2017)

----- AuxC basis set information -----
Your calculation utilizes the AutoAux generation procedure.
  G. L. Stoychev, A. A. Auer, F. Neese, J. Chem. Theory Comput. 13, 554 (2017)

----- AuxJK basis set information -----
Your calculation utilizes the AutoAux generation procedure.
  G. L. Stoychev, A. A. Auer, F. Neese, J. Chem. Theory Comput. 13, 554 (2017)

================================================================================
                                        WARNINGS
                       Please study these warnings very carefully!
================================================================================

WARNING: Old DensityContainer found on disk!
         Will remove this file - 
         If you want to keep old densities, please start your calculation with a different basename. 


WARNING: Geometry Optimization
  ===> : Switching off AutoStart
         For restart on a previous wavefunction, please use MOREAD

INFO   : the flag for use of the SHARK integral package has been found!

================================================================================
                                       INPUT FILE
================================================================================
NAME = co_0.inp
|  1> !B3LYP D3BJ 6-311G
|  2> !RIJCOSX AutoAux printbasis
|  3> !Opt Freq
|  4> !DEFGRID3 TightSCF
|  5> *xyz 0 1
|  6> C 0.00000000000000 0.00000000000000 0.00000000000000
|  7> O 1.50000000000000 0.00000000000000 0.00000000000000
|  8> **                         ****END OF INPUT****
================================================================================

                       *****************************
                       * Geometry Optimization Run *
                       *****************************

Geometry optimization settings:
Update method            Update   .... BFGS
Choice of coordinates    CoordSys .... Z-matrix Internals
Initial Hessian          InHess   .... Almoef's Model

Convergence Tolerances:
Energy Change            TolE     ....  5.0000e-06 Eh
Max. Gradient            TolMAXG  ....  3.0000e-04 Eh/bohr
RMS Gradient             TolRMSG  ....  1.0000e-04 Eh/bohr
Max. Displacement        TolMAXD  ....  4.0000e-03 bohr
RMS Displacement         TolRMSD  ....  2.0000e-03 bohr
Strict Convergence                ....  False
------------------------------------------------------------------------------
                        ORCA OPTIMIZATION COORDINATE SETUP
------------------------------------------------------------------------------

The optimization will be done in new redundant internal coordinates
Making redundant internal coordinates   ...  (new redundants) done
Evaluating the initial hessian          ...  (Almloef) done
Evaluating the coordinates              ...  done
Calculating the B-matrix                .... done
Calculating the G-matrix                .... done
Diagonalizing the G-matrix              .... done
The first mode is                       ....    0
The number of degrees of freedom        ....    1

    -----------------------------------------------------------------
                    Redundant Internal Coordinates


    -----------------------------------------------------------------
         Definition                    Initial Value    Approx d2E/dq
    -----------------------------------------------------------------
      1. B(O   1,C   0)                  1.5000         0.373575   
    -----------------------------------------------------------------

Number of atoms                         .... 2
Number of degrees of freedom            .... 1

         *************************************************************
         *                GEOMETRY OPTIMIZATION CYCLE   1            *
         *************************************************************
---------------------------------
CARTESIAN COORDINATES (ANGSTROEM)
---------------------------------
  C      0.000000    0.000000    0.000000
  O      1.500000    0.000000    0.000000

----------------------------
CARTESIAN COORDINATES (A.U.)
----------------------------
  NO LB      ZA    FRAG     MASS         X           Y           Z
   0 C     6.0000    0    12.011    0.000000    0.000000    0.000000
   1 O     8.0000    0    15.999    2.834589    0.000000    0.000000

--------------------------------
INTERNAL COORDINATES (ANGSTROEM)
--------------------------------
 C      0   0   0     0.000000000000     0.00000000     0.00000000
 O      1   0   0     1.500000000000     0.00000000     0.00000000

---------------------------
INTERNAL COORDINATES (A.U.)
---------------------------
 C      0   0   0     0.000000000000     0.00000000     0.00000000
 O      1   0   0     2.834589200882     0.00000000     0.00000000

---------------------
BASIS SET INFORMATION
---------------------
There are 2 groups of distinct atoms

 Group   1 Type C   : 11s5p contracted to 4s3p pattern {6311/311}
 Group   2 Type O   : 11s5p contracted to 4s3p pattern {6311/311}

Atom   0C    basis set group =>   1
Atom   1O    basis set group =>   2

-------------------------
BASIS SET IN INPUT FORMAT
-------------------------

 # Basis set for element : C 
 NewGTO C 
 S 6 
   1    4563.2400000000      0.0019666502
   2     682.0240000000      0.0152306019
   3     154.9730000000      0.0761269097
   4      44.4553000000      0.2608010331
   5      13.0290000000      0.6164620782
   6       1.8277300000      0.2210060280
 S 3 
   1      20.9642000000      0.1146600807
   2       4.8033100000      0.9199996477
   3       1.4593300000     -0.0030306821
 P 3 
   1      20.9642000000      0.0402486927
   2       4.8033100000      0.2375939567
   3       1.4593300000      0.8158538515
 S 1 
   1       0.4834560000      1.0000000000
 P 1 
   1       0.4834560000      1.0000000000
 S 1 
   1       0.1455850000      1.0000000000
 P 1 
   1       0.1455850000      1.0000000000
  end;

 # Basis set for element : O 
 NewGTO O 
 S 6 
   1    8588.5000000000      0.0018951501
   2    1297.2300000000      0.0143859006
   3     299.2960000000      0.0707320031
   4      87.3771000000      0.2400010105
   5      25.6789000000      0.5947970261
   6       3.7400400000      0.2808020123
 S 3 
   1      42.1175000000      0.1138890124
   2       9.6283700000      0.9208111006
   3       2.8533200000     -0.0032744704
 P 3 
   1      42.1175000000      0.0365113974
   2       9.6283700000      0.2371529830
   3       2.8533200000      0.8197019412
 S 1 
   1       0.9056610000      1.0000000000
 P 1 
   1       0.9056610000      1.0000000000
 S 1 
   1       0.2556110000      1.0000000000
 P 1 
   1       0.2556110000      1.0000000000
  end;

---------------------------------
AUXILIARY/J BASIS SET INFORMATION
---------------------------------
There are 2 groups of distinct atoms

 Group   1 Type C   : 14s12p8d contracted to 14s12p8d pattern {11111111111111/111111111111/11111111}
 Group   2 Type O   : 14s12p8d contracted to 14s12p8d pattern {11111111111111/111111111111/11111111}

Atom   0C    basis set group =>   1
Atom   1O    basis set group =>   2

-------------------------------------
AUXILIARY/J BASIS SET IN INPUT FORMAT
-------------------------------------

 # Auxiliary/J basis set for element : C 
 NewAuxJGTO C 
 S 1 
   1     606.3022679937      1.0000000000
 S 1 
   1     336.8345933299      1.0000000000
 S 1 
   1     187.1303296277      1.0000000000
 S 1 
   1     103.9612942376      1.0000000000
 S 1 
   1      57.7562745765      1.0000000000
 S 1 
   1      32.0868192091      1.0000000000
 S 1 
   1      17.8260106717      1.0000000000
 S 1 
   1       9.9033392621      1.0000000000
 S 1 
   1       5.5018551456      1.0000000000
 S 1 
   1       3.0565861920      1.0000000000
 S 1 
   1       1.6981034400      1.0000000000
 S 1 
   1       0.9433908000      1.0000000000
 S 1 
   1       0.5241060000      1.0000000000
 S 1 
   1       0.2911700000      1.0000000000
 P 1 
   1     187.1303296277      1.0000000000
 P 1 
   1     103.9612942376      1.0000000000
 P 1 
   1      57.7562745765      1.0000000000
 P 1 
   1      32.0868192091      1.0000000000
 P 1 
   1      17.8260106717      1.0000000000
 P 1 
   1       9.9033392621      1.0000000000
 P 1 
   1       5.5018551456      1.0000000000
 P 1 
   1       3.0565861920      1.0000000000
 P 1 
   1       1.6981034400      1.0000000000
 P 1 
   1       0.9433908000      1.0000000000
 P 1 
   1       0.5241060000      1.0000000000
 P 1 
   1       0.2911700000      1.0000000000
 D 1 
   1      17.8260106717      1.0000000000
 D 1 
   1       9.9033392621      1.0000000000
 D 1 
   1       5.5018551456      1.0000000000
 D 1 
   1       3.0565861920      1.0000000000
 D 1 
   1       1.6981034400      1.0000000000
 D 1 
   1       0.9433908000      1.0000000000
 D 1 
   1       0.5241060000      1.0000000000
 D 1 
   1       0.2911700000      1.0000000000
  end;

 # Auxiliary/J basis set for element : O 
 NewAuxJGTO O 
 S 1 
   1    1064.5157744558      1.0000000000
 S 1 
   1     591.3976524755      1.0000000000
 S 1 
   1     328.5542513753      1.0000000000
 S 1 
   1     182.5301396529      1.0000000000
 S 1 
   1     101.4056331405      1.0000000000
 S 1 
   1      56.3364628558      1.0000000000
 S 1 
   1      31.2980349199      1.0000000000
 S 1 
   1      17.3877971777      1.0000000000
 S 1 
   1       9.6598873210      1.0000000000
 S 1 
   1       5.3666040672      1.0000000000
 S 1 
   1       2.9814467040      1.0000000000
 S 1 
   1       1.6563592800      1.0000000000
 S 1 
   1       0.9201996000      1.0000000000
 S 1 
   1       0.5112220000      1.0000000000
 P 1 
   1     328.5542513753      1.0000000000
 P 1 
   1     182.5301396529      1.0000000000
 P 1 
   1     101.4056331405      1.0000000000
 P 1 
   1      56.3364628558      1.0000000000
 P 1 
   1      31.2980349199      1.0000000000
 P 1 
   1      17.3877971777      1.0000000000
 P 1 
   1       9.6598873210      1.0000000000
 P 1 
   1       5.3666040672      1.0000000000
 P 1 
   1       2.9814467040      1.0000000000
 P 1 
   1       1.6563592800      1.0000000000
 P 1 
   1       0.9201996000      1.0000000000
 P 1 
   1       0.5112220000      1.0000000000
 D 1 
   1      31.2980349199      1.0000000000
 D 1 
   1      17.3877971777      1.0000000000
 D 1 
   1       9.6598873210      1.0000000000
 D 1 
   1       5.3666040672      1.0000000000
 D 1 
   1       2.9814467040      1.0000000000
 D 1 
   1       1.6563592800      1.0000000000
 D 1 
   1       0.9201996000      1.0000000000
 D 1 
   1       0.5112220000      1.0000000000
  end;

---------------------------------
AUXILIARY/C BASIS SET INFORMATION
---------------------------------
There are 2 groups of distinct atoms

 Group   1 Type C   : 14s12p8d contracted to 14s12p8d pattern {11111111111111/111111111111/11111111}
 Group   2 Type O   : 14s12p8d contracted to 14s12p8d pattern {11111111111111/111111111111/11111111}

Atom   0C    basis set group =>   1
Atom   1O    basis set group =>   2

-------------------------------------
AUXILIARY/C BASIS SET IN INPUT FORMAT
-------------------------------------

 # Auxiliary/C basis set for element : C 
 NewAuxCGTO C 
 S 1 
   1     606.3022679937      1.0000000000
 S 1 
   1     336.8345933299      1.0000000000
 S 1 
   1     187.1303296277      1.0000000000
 S 1 
   1     103.9612942376      1.0000000000
 S 1 
   1      57.7562745765      1.0000000000
 S 1 
   1      32.0868192091      1.0000000000
 S 1 
   1      17.8260106717      1.0000000000
 S 1 
   1       9.9033392621      1.0000000000
 S 1 
   1       5.5018551456      1.0000000000
 S 1 
   1       3.0565861920      1.0000000000
 S 1 
   1       1.6981034400      1.0000000000
 S 1 
   1       0.9433908000      1.0000000000
 S 1 
   1       0.5241060000      1.0000000000
 S 1 
   1       0.2911700000      1.0000000000
 P 1 
   1     187.1303296277      1.0000000000
 P 1 
   1     103.9612942376      1.0000000000
 P 1 
   1      57.7562745765      1.0000000000
 P 1 
   1      32.0868192091      1.0000000000
 P 1 
   1      17.8260106717      1.0000000000
 P 1 
   1       9.9033392621      1.0000000000
 P 1 
   1       5.5018551456      1.0000000000
 P 1 
   1       3.0565861920      1.0000000000
 P 1 
   1       1.6981034400      1.0000000000
 P 1 
   1       0.9433908000      1.0000000000
 P 1 
   1       0.5241060000      1.0000000000
 P 1 
   1       0.2911700000      1.0000000000
 D 1 
   1      17.8260106717      1.0000000000
 D 1 
   1       9.9033392621      1.0000000000
 D 1 
   1       5.5018551456      1.0000000000
 D 1 
   1       3.0565861920      1.0000000000
 D 1 
   1       1.6981034400      1.0000000000
 D 1 
   1       0.9433908000      1.0000000000
 D 1 
   1       0.5241060000      1.0000000000
 D 1 
   1       0.2911700000      1.0000000000
  end;

 # Auxiliary/C basis set for element : O 
 NewAuxCGTO O 
 S 1 
   1    1064.5157744558      1.0000000000
 S 1 
   1     591.3976524755      1.0000000000
 S 1 
   1     328.5542513753      1.0000000000
 S 1 
   1     182.5301396529      1.0000000000
 S 1 
   1     101.4056331405      1.0000000000
 S 1 
   1      56.3364628558      1.0000000000
 S 1 
   1      31.2980349199      1.0000000000
 S 1 
   1      17.3877971777      1.0000000000
 S 1 
   1       9.6598873210      1.0000000000
 S 1 
   1       5.3666040672      1.0000000000
 S 1 
   1       2.9814467040      1.0000000000
 S 1 
   1       1.6563592800      1.0000000000
 S 1 
   1       0.9201996000      1.0000000000
 S 1 
   1       0.5112220000      1.0000000000
 P 1 
   1     328.5542513753      1.0000000000
 P 1 
   1     182.5301396529      1.0000000000
 P 1 
   1     101.4056331405      1.0000000000
 P 1 
   1      56.3364628558      1.0000000000
 P 1 
   1      31.2980349199      1.0000000000
 P 1 
   1      17.3877971777      1.0000000000
 P 1 
   1       9.6598873210      1.0000000000
 P 1 
   1       5.3666040672      1.0000000000
 P 1 
   1       2.9814467040      1.0000000000
 P 1 
   1       1.6563592800      1.0000000000
 P 1 
   1       0.9201996000      1.0000000000
 P 1 
   1       0.5112220000      1.0000000000
 D 1 
   1      31.2980349199      1.0000000000
 D 1 
   1      17.3877971777      1.0000000000
 D 1 
   1       9.6598873210      1.0000000000
 D 1 
   1       5.3666040672      1.0000000000
 D 1 
   1       2.9814467040      1.0000000000
 D 1 
   1       1.6563592800      1.0000000000
 D 1 
   1       0.9201996000      1.0000000000
 D 1 
   1       0.5112220000      1.0000000000
  end;

----------------------------------
AUXILIARY/JK BASIS SET INFORMATION
----------------------------------
There are 2 groups of distinct atoms

 Group   1 Type C   : 14s12p8d contracted to 14s12p8d pattern {11111111111111/111111111111/11111111}
 Group   2 Type O   : 14s12p8d contracted to 14s12p8d pattern {11111111111111/111111111111/11111111}

Atom   0C    basis set group =>   1
Atom   1O    basis set group =>   2

--------------------------------------
AUXILIARY/JK BASIS SET IN INPUT FORMAT
--------------------------------------

 # Auxiliary/JK basis set for element : C 
 NewAuxJKGTO C 
 S 1 
   1     606.3022679937      1.0000000000
 S 1 
   1     336.8345933299      1.0000000000
 S 1 
   1     187.1303296277      1.0000000000
 S 1 
   1     103.9612942376      1.0000000000
 S 1 
   1      57.7562745765      1.0000000000
 S 1 
   1      32.0868192091      1.0000000000
 S 1 
   1      17.8260106717      1.0000000000
 S 1 
   1       9.9033392621      1.0000000000
 S 1 
   1       5.5018551456      1.0000000000
 S 1 
   1       3.0565861920      1.0000000000
 S 1 
   1       1.6981034400      1.0000000000
 S 1 
   1       0.9433908000      1.0000000000
 S 1 
   1       0.5241060000      1.0000000000
 S 1 
   1       0.2911700000      1.0000000000
 P 1 
   1     187.1303296277      1.0000000000
 P 1 
   1     103.9612942376      1.0000000000
 P 1 
   1      57.7562745765      1.0000000000
 P 1 
   1      32.0868192091      1.0000000000
 P 1 
   1      17.8260106717      1.0000000000
 P 1 
   1       9.9033392621      1.0000000000
 P 1 
   1       5.5018551456      1.0000000000
 P 1 
   1       3.0565861920      1.0000000000
 P 1 
   1       1.6981034400      1.0000000000
 P 1 
   1       0.9433908000      1.0000000000
 P 1 
   1       0.5241060000      1.0000000000
 P 1 
   1       0.2911700000      1.0000000000
 D 1 
   1      17.8260106717      1.0000000000
 D 1 
   1       9.9033392621      1.0000000000
 D 1 
   1       5.5018551456      1.0000000000
 D 1 
   1       3.0565861920      1.0000000000
 D 1 
   1       1.6981034400      1.0000000000
 D 1 
   1       0.9433908000      1.0000000000
 D 1 
   1       0.5241060000      1.0000000000
 D 1 
   1       0.2911700000      1.0000000000
  end;

 # Auxiliary/JK basis set for element : O 
 NewAuxJKGTO O 
 S 1 
   1    1064.5157744558      1.0000000000
 S 1 
   1     591.3976524755      1.0000000000
 S 1 
   1     328.5542513753      1.0000000000
 S 1 
   1     182.5301396529      1.0000000000
 S 1 
   1     101.4056331405      1.0000000000
 S 1 
   1      56.3364628558      1.0000000000
 S 1 
   1      31.2980349199      1.0000000000
 S 1 
   1      17.3877971777      1.0000000000
 S 1 
   1       9.6598873210      1.0000000000
 S 1 
   1       5.3666040672      1.0000000000
 S 1 
   1       2.9814467040      1.0000000000
 S 1 
   1       1.6563592800      1.0000000000
 S 1 
   1       0.9201996000      1.0000000000
 S 1 
   1       0.5112220000      1.0000000000
 P 1 
   1     328.5542513753      1.0000000000
 P 1 
   1     182.5301396529      1.0000000000
 P 1 
   1     101.4056331405      1.0000000000
 P 1 
   1      56.3364628558      1.0000000000
 P 1 
   1      31.2980349199      1.0000000000
 P 1 
   1      17.3877971777      1.0000000000
 P 1 
   1       9.6598873210      1.0000000000
 P 1 
   1       5.3666040672      1.0000000000
 P 1 
   1       2.9814467040      1.0000000000
 P 1 
   1       1.6563592800      1.0000000000
 P 1 
   1       0.9201996000      1.0000000000
 P 1 
   1       0.5112220000      1.0000000000
 D 1 
   1      31.2980349199      1.0000000000
 D 1 
   1      17.3877971777      1.0000000000
 D 1 
   1       9.6598873210      1.0000000000
 D 1 
   1       5.3666040672      1.0000000000
 D 1 
   1       2.9814467040      1.0000000000
 D 1 
   1       1.6563592800      1.0000000000
 D 1 
   1       0.9201996000      1.0000000000
 D 1 
   1       0.5112220000      1.0000000000
  end;

------------------------------------------------------------------------------
                           ORCA GTO INTEGRAL CALCULATION
                           -- RI-GTO INTEGRALS CHOSEN --
------------------------------------------------------------------------------
------------------------------------------------------------------------------
                   ___                                                        
                  /   \      - P O W E R E D   B Y -                         
                 /     \                                                     
                 |  |  |   _    _      __       _____    __    __             
                 |  |  |  | |  | |    /  \     |  _  \  |  |  /  |          
                  \  \/   | |  | |   /    \    | | | |  |  | /  /          
                 / \  \   | |__| |  /  /\  \   | |_| |  |  |/  /          
                |  |  |   |  __  | /  /__\  \  |    /   |      \           
                |  |  |   | |  | | |   __   |  |    \   |  |\   \          
                \     /   | |  | | |  |  |  |  | |\  \  |  | \   \       
                 \___/    |_|  |_| |__|  |__|  |_| \__\ |__|  \__/        
                                                                              
                      - O R C A' S   B I G   F R I E N D -                    
                                      &                                       
                       - I N T E G R A L  F E E D E R -                       
                                                                              
 v1 FN, 2020, v2 2021                                                         
------------------------------------------------------------------------------


Reading SHARK input file co_0.SHARKINP.tmp ... ok
----------------------
SHARK INTEGRAL PACKAGE
----------------------

Number of atoms                             ...      2
Number of basis functions                   ...     26
Number of shells                            ...     14
Maximum angular momentum                    ...      1
Integral batch strategy                     ... SHARK/LIBINT Hybrid
RI-J (if used) integral strategy            ... SPLIT-RIJ (Revised 2003 algorithm where possible)
Printlevel                                  ...      1
Contraction scheme used                     ... SEGMENTED contraction
Coulomb Range Separation                    ... NOT USED
Exchange Range Separation                   ... NOT USED
Finite Nucleus Model                        ... NOT USED
Auxiliary Coulomb fitting basis             ... AVAILABLE
   # of basis functions in Aux-J            ...    180
   # of shells in Aux-J                     ...     68
   Maximum angular momentum in Aux-J        ...      2
Auxiliary J/K fitting basis                 ... AVAILABLE
   # of basis functions in Aux-JK           ...    180
   # of shells in Aux-JK                    ...     68
   Maximum angular momentum in Aux-JK       ...      2
Auxiliary Correlation fitting basis         ... AVAILABLE
   # of basis functions in Aux-C            ...    180
   # of shells in Aux-C                     ...     68
   Maximum angular momentum in Aux-C        ...      2
Auxiliary 'external' fitting basis          ... NOT available
Integral threshold                          ...     2.500000e-11
Primitive cut-off                           ...     2.500000e-12
Primitive pair pre-selection threshold      ...     2.500000e-12

Calculating pre-screening integrals         ... done (  0.0 sec) Dimension = 14
Organizing shell pair data                  ... done (  0.0 sec)
Shell pair information
Total number of shell pairs                 ...       105
Shell pairs after pre-screening             ...       105
Total number of primitive shell pairs       ...       570
Primitive shell pairs kept                  ...       491
          la=0 lb=0:     36 shell pairs
          la=1 lb=0:     48 shell pairs
          la=1 lb=1:     21 shell pairs

Calculating one electron integrals          ... done (  0.0 sec)
Calculating RI/J V-Matrix + Cholesky decomp.... done (  0.0 sec)
Calculating RI/JK V-Matrix + Cholesky decomp... done (  0.0 sec)
Calculating RI/C V-Matrix + Cholesky decomp.... done (  0.0 sec)
Calculating Nuclear repulsion               ... done (  0.0 sec) ENN=     16.933670665600 Eh

SHARK setup successfully completed in   0.0 seconds

Maximum memory used throughout the entire GTOINT-calculation: 6.1 MB
-------------------------------------------------------------------------------
                                 ORCA SCF
-------------------------------------------------------------------------------

------------
SCF SETTINGS
------------
Hamiltonian:
 Density Functional     Method          .... DFT(GTOs)
 Exchange Functional    Exchange        .... B88
   X-Alpha parameter    XAlpha          ....  0.666667
   Becke's b parameter  XBeta           ....  0.004200
 Correlation Functional Correlation     .... LYP
 LDA part of GGA corr.  LDAOpt          .... VWN-5
 Gradients option       PostSCFGGA      .... off
 Hybrid DFT is turned on
   Fraction HF Exchange ScalHFX         ....  0.200000
   Scaling of DF-GGA-X  ScalDFX         ....  0.720000
   Scaling of DF-GGA-C  ScalDFC         ....  0.810000
   Scaling of DF-LDA-C  ScalLDAC        ....  1.000000
   Perturbative correction              ....  0.000000
   Density functional embedding theory  .... OFF
   NL short-range parameter             ....  4.800000
 RI-approximation to the Coulomb term is turned on
   Number of AuxJ basis functions       .... 180
   RIJ-COSX (HFX calculated with COS-X)).... on


General Settings:
 Integral files         IntName         .... co_0
 Hartree-Fock type      HFTyp           .... RHF
 Total Charge           Charge          ....    0
 Multiplicity           Mult            ....    1
 Number of Electrons    NEL             ....   14
 Basis Dimension        Dim             ....   26
 Nuclear Repulsion      ENuc            ....     16.9336706656 Eh

Convergence Acceleration:
 DIIS                   CNVDIIS         .... on
   Start iteration      DIISMaxIt       ....    12
   Startup error        DIISStart       ....  0.200000
   # of expansion vecs  DIISMaxEq       ....     5
   Bias factor          DIISBfac        ....   1.050
   Max. coefficient     DIISMaxC        ....  10.000
 Trust-Rad. Augm. Hess. CNVTRAH         .... auto
   Auto Start mean grad. ratio tolernc. ....  1.125000
   Auto Start start iteration           ....    20
   Auto Start num. interpolation iter.  ....    10
   Max. Number of Micro iterations      ....    16
   Max. Number of Macro iterations      .... Maxiter - #DIIS iter
   Number of Davidson start vectors     ....     2
   Converg. threshold I  (grad. norm)   ....   1.000e-05
   Converg. threshold II (energy diff.) ....   1.000e-08
   Grad. Scal. Fac. for Micro threshold ....   0.100
   Minimum threshold for Micro iter.    ....   0.010
   NR start threshold (gradient norm)   ....   0.001
   Initial trust radius                 ....   0.400
   Minimum AH scaling param. (alpha)    ....   1.000
   Maximum AH scaling param. (alpha)    .... 1000.000
   Orbital update algorithm             .... Taylor
   White noise on init. David. guess    .... on
   Maximum white noise                  ....   0.010
   Quad. conv. algorithm                .... NR
 SOSCF                  CNVSOSCF        .... on
   Start iteration      SOSCFMaxIt      ....   150
   Startup grad/error   SOSCFStart      ....  0.003300
 Level Shifting         CNVShift        .... on
   Level shift para.    LevelShift      ....    0.2500
   Turn off err/grad.   ShiftErr        ....    0.0010
 Zerner damping         CNVZerner       .... off
 Static damping         CNVDamp         .... on
   Fraction old density DampFac         ....    0.7000
   Max. Damping (<1)    DampMax         ....    0.9800
   Min. Damping (>=0)   DampMin         ....    0.0000
   Turn off err/grad.   DampErr         ....    0.1000
 Fernandez-Rico         CNVRico         .... off

SCF Procedure:
 Maximum # iterations   MaxIter         ....   125
 SCF integral mode      SCFMode         .... Direct
   Integral package                     .... SHARK and LIBINT hybrid scheme
 Reset frequency        DirectResetFreq ....    20
 Integral Threshold     Thresh          ....  2.500e-11 Eh
 Primitive CutOff       TCut            ....  2.500e-12 Eh

Convergence Tolerance:
 Convergence Check Mode ConvCheckMode   .... Total+1el-Energy
 Convergence forced     ConvForced      .... 0
 Energy Change          TolE            ....  1.000e-08 Eh
 1-El. energy change                    ....  1.000e-05 Eh
 Orbital Gradient       TolG            ....  1.000e-05
 Orbital Rotation angle TolX            ....  1.000e-05
 DIIS Error             TolErr          ....  5.000e-07


Diagonalization of the overlap matrix:
Smallest eigenvalue                        ... 4.435e-02
Time for diagonalization                   ...    0.000 sec
Threshold for overlap eigenvalues          ... 1.000e-08
Number of eigenvalues below threshold      ... 0
Time for construction of square roots      ...    0.000 sec
Total time needed                          ...    0.000 sec

Time for model grid setup =    0.007 sec

------------------------------
INITIAL GUESS: MODEL POTENTIAL
------------------------------
Loading Hartree-Fock densities                     ... done
Calculating cut-offs                               ... done
Initializing the effective Hamiltonian             ... done
Setting up the integral package (SHARK)            ... done
Starting the Coulomb interaction                   ... done (   0.0 sec)
Reading the grid                                   ... done
Mapping shells                                     ... done
Starting the XC term evaluation                    ... done (   0.0 sec)
  promolecular density results
     # of electrons  =     13.999955814
     EX              =    -13.114041047
     EC              =     -0.472568153
     EX+EC           =    -13.586609200
Transforming the Hamiltonian                       ... done (   0.0 sec)
Diagonalizing the Hamiltonian                      ... done (   0.0 sec)
Back transforming the eigenvectors                 ... done (   0.0 sec)
Now organizing SCF variables                       ... done
                      ------------------
                      INITIAL GUESS DONE (   0.0 sec)
                      ------------------
-------------------
DFT GRID GENERATION
-------------------

General Integration Accuracy     IntAcc      ... 4.959
Radial Grid Type                 RadialGrid  ... OptM3 with GC (2021)
Angular Grid (max. ang.)         AngularGrid ... 6 (Lebedev-590)
Angular grid pruning method      GridPruning ... 4 (adaptive)
Weight generation scheme         WeightScheme... Becke
Basis function cutoff            BFCut       ... 1.0000e-11
Integration weight cutoff        WCut        ... 1.0000e-14
Angular grids for H and He will be reduced by one unit
Partially contracted basis set               ... off
Rotationally invariant grid construction     ... off

Total number of grid points                  ...    29109
Total number of batches                      ...      456
Average number of points per batch           ...       63
Average number of grid points per atom       ...    14554
Time for grid setup =    0.249 sec

--------------------
COSX GRID GENERATION
--------------------

GRIDX 1
-------
General Integration Accuracy     IntAcc      ... 4.020
Radial Grid Type                 RadialGrid  ... OptM3 with GC (2021)
Angular Grid (max. ang.)         AngularGrid ... 2 (Lebedev-110)
Angular grid pruning method      GridPruning ... 4 (adaptive)
Weight generation scheme         WeightScheme... Becke
Basis function cutoff            BFCut       ... 1.0000e-11
Integration weight cutoff        WCut        ... 1.0000e-14
Angular grids for H and He will be reduced by one unit
Partially contracted basis set               ... on
Rotationally invariant grid construction     ... off

Total number of grid points                  ...     3764
Total number of batches                      ...       59
Average number of points per batch           ...       63
Average number of grid points per atom       ...     1882
UseSFitting                                  ... on

GRIDX 2
-------
General Integration Accuracy     IntAcc      ... 4.338
Radial Grid Type                 RadialGrid  ... OptM3 with GC (2021)
Angular Grid (max. ang.)         AngularGrid ... 3 (Lebedev-194)
Angular grid pruning method      GridPruning ... 4 (adaptive)
Weight generation scheme         WeightScheme... Becke
Basis function cutoff            BFCut       ... 1.0000e-11
Integration weight cutoff        WCut        ... 1.0000e-14
Angular grids for H and He will be reduced by one unit
Partially contracted basis set               ... on
Rotationally invariant grid construction     ... off

Total number of grid points                  ...     8425
Total number of batches                      ...      133
Average number of points per batch           ...       63
Average number of grid points per atom       ...     4212
UseSFitting                                  ... on

GRIDX 3
-------
General Integration Accuracy     IntAcc      ... 4.871
Radial Grid Type                 RadialGrid  ... OptM3 with GC (2021)
Angular Grid (max. ang.)         AngularGrid ... 4 (Lebedev-302)
Angular grid pruning method      GridPruning ... 4 (adaptive)
Weight generation scheme         WeightScheme... Becke
Basis function cutoff            BFCut       ... 1.0000e-11
Integration weight cutoff        WCut        ... 1.0000e-14
Angular grids for H and He will be reduced by one unit
Partially contracted basis set               ... on
Rotationally invariant grid construction     ... off

Total number of grid points                  ...    14955
Total number of batches                      ...      235
Average number of points per batch           ...       63
Average number of grid points per atom       ...     7478
UseSFitting                                  ... on

Time for X-Grid setup             =    0.100 sec

--------------
SCF ITERATIONS
--------------
ITER       Energy         Delta-E        Max-DP      RMS-DP      [F,P]     Damp
               ***  Starting incremental Fock matrix formation  ***
  0   -112.9305363618   0.000000000000 0.09421261  0.01346125  0.4299598 0.7000
  1   -113.0174275385  -0.086891176649 0.01541845  0.00256342  0.0868454 0.7000
                               ***Turning on DIIS***
  2   -113.0356594523  -0.018231913805 0.03539052  0.00338833  0.1171397 0.7000
  3   -113.0698387132  -0.034179260856 0.03475814  0.00490986  0.0216337 0.0000
  4   -113.1104314628  -0.040592749654 0.00768944  0.00059333  0.1234817 0.7000
  5   -113.1143135234  -0.003882060576 0.00810341  0.00065090  0.1072684 0.7000
  6   -113.1181321646  -0.003818641251 0.02392451  0.00196703  0.0892665 0.0000
  7   -113.1262241554  -0.008091990769 0.00885858  0.00068477  0.0377681 0.0000
  8   -113.1273611921  -0.001137036699 0.00623902  0.00053652  0.0227165 0.0000
  9   -113.1278774337  -0.000516241583 0.00103269  0.00017022  0.0090804 0.0000
 10   -113.1279557152  -0.000078281471 0.00064116  0.00008403  0.0038436 0.0000
                      *** Initiating the SOSCF procedure ***
                           *** Shutting down DIIS ***
                      *** Re-Reading the Fockian *** 
                      *** Removing any level shift *** 
ITER      Energy       Delta-E        Grad      Rot      Max-DP    RMS-DP
 11   -113.12797006  -0.0000143417  0.000212  0.000212  0.000247  0.000034
               *** Restarting incremental Fock matrix formation ***
 12   -113.12797284  -0.0000027865  0.000330  0.001344  0.000690  0.000110
 13   -113.12796240   0.0000104471  0.001419  0.000970  0.000581  0.000089
 14   -113.12797346  -0.0000110640  0.000029  0.000047  0.000085  0.000007
 15   -113.12797347  -0.0000000054  0.000011  0.000008  0.000033  0.000002
                 **** Energy Check signals convergence ****
              ***Rediagonalizing the Fockian in SOSCF/NRSCF***

               *****************************************************
               *                     SUCCESS                       *
               *           SCF CONVERGED AFTER  16 CYCLES          *
               *****************************************************

Old exchange energy                            =     -2.595101312 Eh
New exchange energy                            =     -2.595102344 Eh
Exchange energy change after final integration =     -0.000001032 Eh
Total energy after final integration           =   -113.127974499 Eh
Final COS-X integration done in                =     0.083 sec

----------------
TOTAL SCF ENERGY
----------------

Total Energy       :         -113.12797450 Eh           -3078.36869 eV

Components:
Nuclear Repulsion  :           16.93367067 Eh             460.78860 eV
Electronic Energy  :         -130.06164516 Eh           -3539.15729 eV
One Electron Energy:         -187.45610997 Eh           -5100.94008 eV
Two Electron Energy:           57.39446480 Eh            1561.78279 eV
Max COSX asymmetry :            0.00000015 Eh               0.00000 eV

Virial components:
Potential Energy   :         -225.38226563 Eh           -6132.96324 eV
Kinetic Energy     :          112.25429113 Eh            3054.59455 eV
Virial Ratio       :            2.00778307


DFT components:
N(Alpha)           :        6.999998925509 electrons
N(Beta)            :        6.999998925509 electrons
N(Total)           :       13.999997851017 electrons
E(X)               :      -10.432189131100 Eh       
E(C)               :       -0.559958340389 Eh       
E(XC)              :      -10.992147471489 Eh       
DFET-embed. en.    :        0.000000000000 Eh       

---------------
SCF CONVERGENCE
---------------

  Last Energy change         ...   -1.2514e-09  Tolerance :   1.0000e-08
  Last MAX-Density change    ...    4.4409e-16  Tolerance :   1.0000e-07
  Last RMS-Density change    ...    5.6667e-17  Tolerance :   5.0000e-09
  Last Orbital Gradient      ...    8.0516e-07  Tolerance :   1.0000e-05
  Last Orbital Rotation      ...    5.2742e-07  Tolerance :   1.0000e-05

             **** THE GBW FILE WAS UPDATED (co_0.gbw) ****
             **** DENSITY co_0.scfp WAS UPDATED ****
             **** ENERGY FILE WAS UPDATED (co_0.en.tmp) ****
             **** THE GBW FILE WAS UPDATED (co_0.gbw) ****
             **** DENSITY co_0.scfp WAS UPDATED ****
----------------
ORBITAL ENERGIES
----------------

  NO   OCC          E(Eh)            E(eV) 
   0   2.0000     -19.230652      -523.2926 
   1   2.0000     -10.388905      -282.6965 
   2   2.0000      -1.015566       -27.6349 
   3   2.0000      -0.588499       -16.0139 
   4   2.0000      -0.387222       -10.5369 
   5   2.0000      -0.385915       -10.5013 
   6   2.0000      -0.385915       -10.5013 
   7   0.0000      -0.140653        -3.8274 
   8   0.0000      -0.140653        -3.8274 
   9   0.0000       0.078254         2.1294 
  10   0.0000       0.380640        10.3577 
  11   0.0000       0.386858        10.5269 
  12   0.0000       0.386858        10.5269 
  13   0.0000       0.415950        11.3186 
  14   0.0000       0.784210        21.3394 
  15   0.0000       0.786551        21.4031 
  16   0.0000       0.786551        21.4031 
  17   0.0000       1.232678        33.5429 
  18   0.0000       2.477468        67.4153 
  19   0.0000       2.477468        67.4153 
  20   0.0000       2.592254        70.5388 
  21   0.0000       4.707240       128.0905 
  22   0.0000       4.707240       128.0905 
  23   0.0000       4.773592       129.8960 
  24   0.0000      22.994296       625.7066 
  25   0.0000      49.626417      1350.4035 

                    ********************************
                    * MULLIKEN POPULATION ANALYSIS *
                    ********************************

-----------------------
MULLIKEN ATOMIC CHARGES
-----------------------
   0 C :    0.340876
   1 O :   -0.340876
Sum of atomic charges:   -0.0000000

--------------------------------
MULLIKEN REDUCED ORBITAL CHARGES
--------------------------------
  0 C s       :     3.910036  s :     3.910036
      pz      :     0.495667  p :     1.749088
      px      :     0.757753
      py      :     0.495667
  1 O s       :     3.986312  s :     3.986312
      pz      :     1.504333  p :     4.354564
      px      :     1.345899
      py      :     1.504333


                     *******************************
                     * LOEWDIN POPULATION ANALYSIS *
                     *******************************

----------------------
LOEWDIN ATOMIC CHARGES
----------------------
   0 C :    0.208230
   1 O :   -0.208230

-------------------------------
LOEWDIN REDUCED ORBITAL CHARGES
-------------------------------
  0 C s       :     3.791255  s :     3.791255
      pz      :     0.512481  p :     2.000515
      px      :     0.975553
      py      :     0.512481
  1 O s       :     3.810140  s :     3.810140
      pz      :     1.487519  p :     4.398090
      px      :     1.423052
      py      :     1.487519


                      *****************************
                      * MAYER POPULATION ANALYSIS *
                      *****************************

  NA   - Mulliken gross atomic population
  ZA   - Total nuclear charge
  QA   - Mulliken gross atomic charge
  VA   - Mayer's total valence
  BVA  - Mayer's bonded valence
  FA   - Mayer's free valence

  ATOM       NA         ZA         QA         VA         BVA        FA
  0 C      5.6591     6.0000     0.3409     2.2561     2.2561    -0.0000
  1 O      8.3409     8.0000    -0.3409     2.2561     2.2561    -0.0000

  Mayer bond orders larger than 0.100000
B(  0-C ,  1-O ) :   2.2561 

-------
TIMINGS
-------

Total SCF time: 0 days 0 hours 0 min 1 sec 

Total time                  ....       1.588 sec
Sum of individual times     ....       1.561 sec  ( 98.3%)

Fock matrix formation       ....       1.194 sec  ( 75.2%)
  Split-RI-J                ....       0.070 sec  (  5.9% of F)
  Chain of spheres X        ....       0.642 sec  ( 53.8% of F)
  XC integration            ....       0.478 sec  ( 40.1% of F)
    Basis function eval.    ....       0.169 sec  ( 35.4% of XC)
    Density eval.           ....       0.106 sec  ( 22.1% of XC)
    XC-Functional eval.     ....       0.109 sec  ( 22.7% of XC)
    XC-Potential eval.      ....       0.054 sec  ( 11.4% of XC)
Diagonalization             ....       0.001 sec  (  0.1%)
Density matrix formation    ....       0.000 sec  (  0.0%)
Population analysis         ....       0.001 sec  (  0.0%)
Initial guess               ....       0.004 sec  (  0.3%)
Orbital Transformation      ....       0.000 sec  (  0.0%)
Orbital Orthonormalization  ....       0.000 sec  (  0.0%)
DIIS solution               ....       0.004 sec  (  0.3%)
SOSCF solution              ....       0.000 sec  (  0.0%)
Grid generation             ....       0.357 sec  ( 22.5%)

Maximum memory used throughout the entire SCF-calculation: 41.7 MB


-------------------------------------------------------------------------------
                          DFT DISPERSION CORRECTION                            
                                                                               
                              DFTD3 V3.1  Rev 1                                
                          USING Becke-Johnson damping                          
-------------------------------------------------------------------------------
The B3LYP functional is recognized
Active option DFTDOPT                   ...         4   

molecular C6(AA) [au] = 100.990603 


            DFT-D V3
 parameters
 s6 scaling factor         :     1.0000 
 a1 scaling factor         :     0.3981 
 s8 scaling factor         :     1.9889 
 a2 scaling factor         :     4.4211 
 ad hoc parameters k1-k3   :    16.0000     1.3333    -4.0000 

 Edisp/kcal,au: -0.455779278613  -0.000726330436 
 E6   /kcal   :  -0.208255859 
 E8   /kcal   :  -0.247523419 
 % E8         :  54.307738579 

-------------------------   ----------------
Dispersion correction           -0.000726330
-------------------------   ----------------


-------------------------   --------------------
FINAL SINGLE POINT ENERGY      -113.128700829737
-------------------------   --------------------

------------------------------------------------------------------------------
                         ORCA SCF GRADIENT CALCULATION
------------------------------------------------------------------------------

 ... reading COSX grid (gridx3)
Gradient of the Kohn-Sham DFT energy:
Kohn-Sham wavefunction type      ... RKS
Hartree-Fock exchange scaling    ...    0.200
Number of operators              ...    1
Number of atoms                  ...    2
Basis set dimensions             ...   26
Integral neglect threshold       ... 2.5e-11
Integral primitive cutoff        ... 2.5e-12
SHARK Integral package           ... ON

Nuc. rep. gradient       (SHARK) ... done (  0.0 sec)
HCore & Overlap gradient (SHARK) ... done (  0.0 sec)
RI-J gradient            (SHARK) ... done (  0.0 sec)
COSX-gradient                    ... done (  0.1 sec)
Exchange-correlation gradient    ... done
Dispersion correction            ... done

------------------
CARTESIAN GRADIENT
------------------

   1   C   :   -0.235883447    0.000000000    0.000000001
   2   O   :    0.235876494    0.000000001   -0.000000003

Difference to translation invariance:
           :   -0.0000069529    0.0000000013   -0.0000000020

Difference to rotation invariance:
           :    0.0000000000    0.0000000084    0.0000000033

Norm of the cartesian gradient     ...    0.3335846538
RMS gradient                       ...    0.1361853646
MAX gradient                       ...    0.2358834472

-------
TIMINGS
-------

Total SCF gradient time            ...        0.265 sec

One electron gradient       ....       0.001 sec  (  0.2%)
RI-J Coulomb gradient       ....       0.015 sec  (  5.7%)
COSX gradient               ....       0.104 sec  ( 39.1%)
XC gradient                 ....       0.095 sec  ( 35.7%)

Maximum memory used throughout the entire SCFGRAD-calculation: 31.8 MB
------------------------------------------------------------------------------
                         ORCA GEOMETRY RELAXATION STEP
------------------------------------------------------------------------------

Reading the OPT-File                    .... done
Getting information on internals        .... done
Copying old internal coords+grads       .... done
Making the new internal coordinates     .... (new redundants).... done
Validating the new internal coordinates .... (new redundants).... done
Calculating the B-matrix                .... done
Calculating the G,G- and P matrices     .... done
Transforming gradient to internals      .... done
Projecting the internal gradient        .... done
Number of atoms                         ....   2
Number of internal coordinates          ....   1
Current Energy                          ....  -113.128700830 Eh
Current gradient norm                   ....     0.333584654 Eh/bohr
Maximum allowed component of the step   ....  0.300
Current trust radius                    ....  0.300
Evaluating the initial hessian          ....  (Almloef) done
Projecting the Hessian                  .... done
Forming the augmented Hessian           .... done
Diagonalizing the augmented Hessian     .... done
Last element of RFO vector              ....  0.900223071
Lowest eigenvalues of augmented Hessian:
 -0.114092812
Length of the computed step             ....  0.483690124
Warning: the length of the step is outside the trust region - taking restricted step instead
The input lambda is                     ....    -0.114093
   iter:   1  x=   -0.264127  g=    0.959490 f(x)=     0.143956
   iter:   2  x=   -0.373237  g=    0.429101 f(x)=     0.046819
   iter:   3  x=   -0.409772  g=    0.267165 f(x)=     0.009761
   iter:   4  x=   -0.412676  g=    0.231500 f(x)=     0.000672
   iter:   5  x=   -0.412692  g=    0.228944 f(x)=     0.000004
   iter:   6  x=   -0.412692  g=    0.228930 f(x)=     0.000000
   iter:   7  x=   -0.412692  g=    0.228930 f(x)=    -0.000000
The output lambda is                    ....    -0.412692 (7 iterations)
The final length of the internal step   ....  0.300000000
Converting the step to cartesian space:
 Initial RMS(Int)=    0.3000000000
Transforming coordinates:
 Iter   0:  RMS(Cart)=    0.0866025404 RMS(Int)=    0.3000000000
 Iter   1:  RMS(Cart)=    0.0000000000 RMS(Int)=    0.0000000000
done
Storing new coordinates                 .... done

                                .--------------------.
          ----------------------|Geometry convergence|-------------------------
          Item                value                   Tolerance       Converged
          ---------------------------------------------------------------------
          RMS gradient        0.2358799708            0.0001000000      NO
          MAX gradient        0.2358799708            0.0003000000      NO
          RMS step            0.3000000000            0.0020000000      NO
          MAX step            0.3000000000            0.0040000000      NO
          ........................................................
          Max(Bonds)      0.1588      Max(Angles)    0.00
          Max(Dihed)        0.00      Max(Improp)    0.00
          ---------------------------------------------------------------------

The optimization has not yet converged - more geometry cycles are needed


    ---------------------------------------------------------------------------
                         Redundant Internal Coordinates
                            (Angstroem and degrees)

        Definition                    Value    dE/dq     Step     New-Value
    ----------------------------------------------------------------------------
     1. B(O   1,C   0)                1.5000  0.235880 -0.1588    1.3412   
    ----------------------------------------------------------------------------

         *************************************************************
         *                GEOMETRY OPTIMIZATION CYCLE   2            *
         *************************************************************
---------------------------------
CARTESIAN COORDINATES (ANGSTROEM)
---------------------------------
  C      0.079377    0.000000    0.000000
  O      1.420623    0.000000    0.000000

----------------------------
CARTESIAN COORDINATES (A.U.)
----------------------------
  NO LB      ZA    FRAG     MASS         X           Y           Z
   0 C     6.0000    0    12.011    0.150000    0.000000    0.000000
   1 O     8.0000    0    15.999    2.684589    0.000000    0.000000

--------------------------------
INTERNAL COORDINATES (ANGSTROEM)
--------------------------------
 C      0   0   0     0.000000000000     0.00000000     0.00000000
 O      1   0   0     1.341246837510     0.00000000     0.00000000

---------------------------
INTERNAL COORDINATES (A.U.)
---------------------------
 C      0   0   0     0.000000000000     0.00000000     0.00000000
 O      1   0   0     2.534589200882     0.00000000     0.00000000

------------------------------------------------------------------------------
                   ___                                                        
                  /   \      - P O W E R E D   B Y -                         
                 /     \                                                     
                 |  |  |   _    _      __       _____    __    __             
                 |  |  |  | |  | |    /  \     |  _  \  |  |  /  |          
                  \  \/   | |  | |   /    \    | | | |  |  | /  /          
                 / \  \   | |__| |  /  /\  \   | |_| |  |  |/  /          
                |  |  |   |  __  | /  /__\  \  |    /   |      \           
                |  |  |   | |  | | |   __   |  |    \   |  |\   \          
                \     /   | |  | | |  |  |  |  | |\  \  |  | \   \       
                 \___/    |_|  |_| |__|  |__|  |_| \__\ |__|  \__/        
                                                                              
                      - O R C A' S   B I G   F R I E N D -                    
                                      &                                       
                       - I N T E G R A L  F E E D E R -                       
                                                                              
 v1 FN, 2020, v2 2021                                                         
------------------------------------------------------------------------------


Reading SHARK input file co_0.SHARKINP.tmp ... ok
----------------------
SHARK INTEGRAL PACKAGE
----------------------

Number of atoms                             ...      2
Number of basis functions                   ...     26
Number of shells                            ...     14
Maximum angular momentum                    ...      1
Integral batch strategy                     ... SHARK/LIBINT Hybrid
RI-J (if used) integral strategy            ... SPLIT-RIJ (Revised 2003 algorithm where possible)
Printlevel                                  ...      1
Contraction scheme used                     ... SEGMENTED contraction
Coulomb Range Separation                    ... NOT USED
Exchange Range Separation                   ... NOT USED
Finite Nucleus Model                        ... NOT USED
Auxiliary Coulomb fitting basis             ... AVAILABLE
   # of basis functions in Aux-J            ...    180
   # of shells in Aux-J                     ...     68
   Maximum angular momentum in Aux-J        ...      2
Auxiliary J/K fitting basis                 ... AVAILABLE
   # of basis functions in Aux-JK           ...    180
   # of shells in Aux-JK                    ...     68
   Maximum angular momentum in Aux-JK       ...      2
Auxiliary Correlation fitting basis         ... AVAILABLE
   # of basis functions in Aux-C            ...    180
   # of shells in Aux-C                     ...     68
   Maximum angular momentum in Aux-C        ...      2
Auxiliary 'external' fitting basis          ... NOT available
Integral threshold                          ...     2.500000e-11
Primitive cut-off                           ...     2.500000e-12
Primitive pair pre-selection threshold      ...     2.500000e-12

Calculating pre-screening integrals         ... done (  0.0 sec) Dimension = 14
Organizing shell pair data                  ... done (  0.0 sec)
Shell pair information
Total number of shell pairs                 ...       105
Shell pairs after pre-screening             ...       105
Total number of primitive shell pairs       ...       570
Primitive shell pairs kept                  ...       504
          la=0 lb=0:     36 shell pairs
          la=1 lb=0:     48 shell pairs
          la=1 lb=1:     21 shell pairs

Calculating one electron integrals          ... done (  0.0 sec)
Calculating RI/J V-Matrix + Cholesky decomp.... done (  0.0 sec)
Calculating RI/JK V-Matrix + Cholesky decomp... done (  0.0 sec)
Calculating RI/C V-Matrix + Cholesky decomp.... done (  0.0 sec)
Calculating Nuclear repulsion               ... done (  0.0 sec) ENN=     18.937980159980 Eh

SHARK setup successfully completed in   0.0 seconds

Maximum memory used throughout the entire GTOINT-calculation: 6.1 MB

Diagonalization of the overlap matrix:
Smallest eigenvalue                        ... 3.350e-02
Time for diagonalization                   ...    0.000 sec
Threshold for overlap eigenvalues          ... 1.000e-08
Number of eigenvalues below threshold      ... 0
Time for construction of square roots      ...    0.000 sec
Total time needed                          ...    0.000 sec

-------------------
DFT GRID GENERATION
-------------------

General Integration Accuracy     IntAcc      ... 4.959
Radial Grid Type                 RadialGrid  ... OptM3 with GC (2021)
Angular Grid (max. ang.)         AngularGrid ... 6 (Lebedev-590)
Angular grid pruning method      GridPruning ... 4 (adaptive)
Weight generation scheme         WeightScheme... Becke
Basis function cutoff            BFCut       ... 1.0000e-11
Integration weight cutoff        WCut        ... 1.0000e-14
Angular grids for H and He will be reduced by one unit
Partially contracted basis set               ... off
Rotationally invariant grid construction     ... off

Total number of grid points                  ...    29099
Total number of batches                      ...      456
Average number of points per batch           ...       63
Average number of grid points per atom       ...    14550
Time for grid setup =    0.249 sec

--------------------
COSX GRID GENERATION
--------------------

GRIDX 1
-------
General Integration Accuracy     IntAcc      ... 4.020
Radial Grid Type                 RadialGrid  ... OptM3 with GC (2021)
Angular Grid (max. ang.)         AngularGrid ... 2 (Lebedev-110)
Angular grid pruning method      GridPruning ... 4 (adaptive)
Weight generation scheme         WeightScheme... Becke
Basis function cutoff            BFCut       ... 1.0000e-11
Integration weight cutoff        WCut        ... 1.0000e-14
Angular grids for H and He will be reduced by one unit
Partially contracted basis set               ... on
Rotationally invariant grid construction     ... off

Total number of grid points                  ...     3763
Total number of batches                      ...       60
Average number of points per batch           ...       62
Average number of grid points per atom       ...     1882
UseSFitting                                  ... on

GRIDX 2
-------
General Integration Accuracy     IntAcc      ... 4.338
Radial Grid Type                 RadialGrid  ... OptM3 with GC (2021)
Angular Grid (max. ang.)         AngularGrid ... 3 (Lebedev-194)
Angular grid pruning method      GridPruning ... 4 (adaptive)
Weight generation scheme         WeightScheme... Becke
Basis function cutoff            BFCut       ... 1.0000e-11
Integration weight cutoff        WCut        ... 1.0000e-14
Angular grids for H and He will be reduced by one unit
Partially contracted basis set               ... on
Rotationally invariant grid construction     ... off

Total number of grid points                  ...     8423
Total number of batches                      ...      132
Average number of points per batch           ...       63
Average number of grid points per atom       ...     4212
UseSFitting                                  ... on

GRIDX 3
-------
General Integration Accuracy     IntAcc      ... 4.871
Radial Grid Type                 RadialGrid  ... OptM3 with GC (2021)
Angular Grid (max. ang.)         AngularGrid ... 4 (Lebedev-302)
Angular grid pruning method      GridPruning ... 4 (adaptive)
Weight generation scheme         WeightScheme... Becke
Basis function cutoff            BFCut       ... 1.0000e-11
Integration weight cutoff        WCut        ... 1.0000e-14
Angular grids for H and He will be reduced by one unit
Partially contracted basis set               ... on
Rotationally invariant grid construction     ... off

Total number of grid points                  ...    14953
Total number of batches                      ...      235
Average number of points per batch           ...       63
Average number of grid points per atom       ...     7476
UseSFitting                                  ... on

Time for X-Grid setup             =    0.101 sec

--------------
SCF ITERATIONS
--------------
ITER       Energy         Delta-E        Max-DP      RMS-DP      [F,P]     Damp
               ***  Starting incremental Fock matrix formation  ***
  0   -113.1860098068   0.000000000000 0.01423590  0.00162711  0.0891411 0.7000
  1   -113.1892356815  -0.003225874694 0.01249855  0.00140303  0.0512540 0.7000
                               ***Turning on DIIS***
  2   -113.1913339643  -0.002098282769 0.03334300  0.00365359  0.0354627 0.0000
  3   -113.1964333677  -0.005099403403 0.02195943  0.00122019  0.0076106 0.0000
  4   -113.1964917639  -0.000058396257 0.00225405  0.00022244  0.0065304 0.0000
                      *** Initiating the SOSCF procedure ***
                           *** Shutting down DIIS ***
                      *** Re-Reading the Fockian *** 
                      *** Removing any level shift *** 
ITER      Energy       Delta-E        Grad      Rot      Max-DP    RMS-DP
  5   -113.19653805  -0.0000462849  0.000483  0.000483  0.001043  0.000110
               *** Restarting incremental Fock matrix formation ***
  6   -113.19654326  -0.0000052150  0.000124  0.000271  0.000297  0.000042
  7   -113.19654345  -0.0000001839  0.000126  0.000180  0.000426  0.000032
  8   -113.19654332   0.0000001242  0.000195  0.000098  0.000208  0.000021
  9   -113.19654354  -0.0000002213  0.000035  0.000035  0.000197  0.000012
 10   -113.19654356  -0.0000000107  0.000011  0.000009  0.000053  0.000003
                 **** Energy Check signals convergence ****
              ***Rediagonalizing the Fockian in SOSCF/NRSCF***

               *****************************************************
               *                     SUCCESS                       *
               *           SCF CONVERGED AFTER  11 CYCLES          *
               *****************************************************

Old exchange energy                            =     -2.617376622 Eh
New exchange energy                            =     -2.617377067 Eh
Exchange energy change after final integration =     -0.000000445 Eh
Total energy after final integration           =   -113.196544001 Eh
Final COS-X integration done in                =     0.086 sec
Total Energy       :         -113.19654400 Eh           -3080.23456 eV
  Last Energy change         ...   -1.2138e-09  Tolerance :   1.0000e-08
  Last MAX-Density change    ...    4.4409e-16  Tolerance :   1.0000e-07
             **** THE GBW FILE WAS UPDATED (co_0.gbw) ****
             **** DENSITY co_0.scfp WAS UPDATED ****
             **** ENERGY FILE WAS UPDATED (co_0.en.tmp) ****
             **** THE GBW FILE WAS UPDATED (co_0.gbw) ****
             **** DENSITY co_0.scfp WAS UPDATED ****
Total SCF time: 0 days 0 hours 0 min 1 sec 

Maximum memory used throughout the entire SCF-calculation: 41.7 MB


-------------------------------------------------------------------------------
                          DFT DISPERSION CORRECTION                            
                                                                               
                              DFTD3 V3.1  Rev 1                                
                          USING Becke-Johnson damping                          
-------------------------------------------------------------------------------
-------------------------   ----------------
Dispersion correction           -0.000726849
-------------------------   ----------------


-------------------------   --------------------
FINAL SINGLE POINT ENERGY      -113.197270850634
-------------------------   --------------------

------------------------------------------------------------------------------
                         ORCA SCF GRADIENT CALCULATION
------------------------------------------------------------------------------

 ... reading COSX grid (gridx3)
Gradient of the Kohn-Sham DFT energy:
Kohn-Sham wavefunction type      ... RKS
Hartree-Fock exchange scaling    ...    0.200
Number of operators              ...    1
Number of atoms                  ...    2
Basis set dimensions             ...   26
Integral neglect threshold       ... 2.5e-11
Integral primitive cutoff        ... 2.5e-12
SHARK Integral package           ... ON

Nuc. rep. gradient       (SHARK) ... done (  0.0 sec)
HCore & Overlap gradient (SHARK) ... done (  0.0 sec)
RI-J gradient            (SHARK) ... done (  0.0 sec)
COSX-gradient                    ... done (  0.1 sec)
Exchange-correlation gradient    ... done
Dispersion correction            ... done

------------------
CARTESIAN GRADIENT
------------------

   1   C   :   -0.210218573    0.000000000    0.000000001
   2   O   :    0.210221000   -0.000000013   -0.000000001

Difference to translation invariance:
           :    0.0000024278   -0.0000000129   -0.0000000000

Difference to rotation invariance:
           :    0.0000000000    0.0000000036   -0.0000000351

Norm of the cartesian gradient     ...    0.2972956730
RMS gradient                       ...    0.1213704503
MAX gradient                       ...    0.2102210003

-------
TIMINGS
-------

Total SCF gradient time            ...        0.269 sec

One electron gradient       ....       0.001 sec  (  0.2%)
RI-J Coulomb gradient       ....       0.015 sec  (  5.7%)
COSX gradient               ....       0.105 sec  ( 39.1%)
XC gradient                 ....       0.097 sec  ( 35.9%)

Maximum memory used throughout the entire SCFGRAD-calculation: 31.8 MB
------------------------------------------------------------------------------
                         ORCA GEOMETRY RELAXATION STEP
------------------------------------------------------------------------------

Reading the OPT-File                    .... done
Getting information on internals        .... done
Copying old internal coords+grads       .... done
Making the new internal coordinates     .... (new redundants).... done
Validating the new internal coordinates .... (new redundants).... done
Calculating the B-matrix                .... done
Calculating the G,G- and P matrices     .... done
Transforming gradient to internals      .... done
Projecting the internal gradient        .... done
Number of atoms                         ....   2
Number of internal coordinates          ....   1
Current Energy                          ....  -113.197270851 Eh
Current gradient norm                   ....     0.297295673 Eh/bohr
Maximum allowed component of the step   ....  0.300
Current trust radius                    ....  0.300
Updating the Hessian (BFGS)             .... done
Forming the augmented Hessian           .... done
Diagonalizing the augmented Hessian     .... done
Last element of RFO vector              ....  0.774388706
Lowest eigenvalues of augmented Hessian:
 -0.171758951
Length of the computed step             ....  0.817044648
Warning: the length of the step is outside the trust region - taking restricted step instead
The input lambda is                     ....    -0.171759
   iter:   1  x=   -0.283061  g=    5.189121 f(x)=     0.577562
   iter:   2  x=   -0.416366  g=    1.764930 f(x)=     0.235273
   iter:   3  x=   -0.538575  g=    0.699080 f(x)=     0.085434
   iter:   4  x=   -0.603089  g=    0.363577 f(x)=     0.023456
   iter:   5  x=   -0.614887  g=    0.270666 f(x)=     0.003193
   iter:   6  x=   -0.615198  g=    0.257218 f(x)=     0.000080
   iter:   7  x=   -0.615199  g=    0.256874 f(x)=     0.000000
   iter:   8  x=   -0.615199  g=    0.256874 f(x)=     0.000000
   iter:   9  x=   -0.615199  g=    0.256874 f(x)=     0.000000
The output lambda is                    ....    -0.615199 (9 iterations)
The final length of the internal step   ....  0.300000000
Converting the step to cartesian space:
 Initial RMS(Int)=    0.3000000000
Transforming coordinates:
 Iter   0:  RMS(Cart)=    0.0866025404 RMS(Int)=    0.3000000000
 Iter   1:  RMS(Cart)=    0.0000000000 RMS(Int)=    0.0000000000
done
Storing new coordinates                 .... done

                                .--------------------.
          ----------------------|Geometry convergence|-------------------------
          Item                value                   Tolerance       Converged
          ---------------------------------------------------------------------
          Energy change      -0.0685700209            0.0000050000      NO
          RMS gradient        0.2102197864            0.0001000000      NO
          MAX gradient        0.2102197864            0.0003000000      NO
          RMS step            0.3000000000            0.0020000000      NO
          MAX step            0.3000000000            0.0040000000      NO
          ........................................................
          Max(Bonds)      0.1588      Max(Angles)    0.00
          Max(Dihed)        0.00      Max(Improp)    0.00
          ---------------------------------------------------------------------

The optimization has not yet converged - more geometry cycles are needed


    ---------------------------------------------------------------------------
                         Redundant Internal Coordinates
                            (Angstroem and degrees)

        Definition                    Value    dE/dq     Step     New-Value
    ----------------------------------------------------------------------------
     1. B(O   1,C   0)                1.3412  0.210220 -0.1588    1.1825   
    ----------------------------------------------------------------------------

         *************************************************************
         *                GEOMETRY OPTIMIZATION CYCLE   3            *
         *************************************************************
---------------------------------
CARTESIAN COORDINATES (ANGSTROEM)
---------------------------------
  C      0.158753    0.000000    0.000000
  O      1.341247    0.000000    0.000000

----------------------------
CARTESIAN COORDINATES (A.U.)
----------------------------
  NO LB      ZA    FRAG     MASS         X           Y           Z
   0 C     6.0000    0    12.011    0.300000    0.000000    0.000000
   1 O     8.0000    0    15.999    2.534589    0.000000    0.000000

--------------------------------
INTERNAL COORDINATES (ANGSTROEM)
--------------------------------
 C      0   0   0     0.000000000000     0.00000000     0.00000000
 O      1   0   0     1.182493675020     0.00000000     0.00000000

---------------------------
INTERNAL COORDINATES (A.U.)
---------------------------
 C      0   0   0     0.000000000000     0.00000000     0.00000000
 O      1   0   0     2.234589200882     0.00000000     0.00000000

------------------------------------------------------------------------------
                   ___                                                        
                  /   \      - P O W E R E D   B Y -                         
                 /     \                                                     
                 |  |  |   _    _      __       _____    __    __             
                 |  |  |  | |  | |    /  \     |  _  \  |  |  /  |          
                  \  \/   | |  | |   /    \    | | | |  |  | /  /          
                 / \  \   | |__| |  /  /\  \   | |_| |  |  |/  /          
                |  |  |   |  __  | /  /__\  \  |    /   |      \           
                |  |  |   | |  | | |   __   |  |    \   |  |\   \          
                \     /   | |  | | |  |  |  |  | |\  \  |  | \   \       
                 \___/    |_|  |_| |__|  |__|  |_| \__\ |__|  \__/        
                                                                              
                      - O R C A' S   B I G   F R I E N D -                    
                                      &                                       
                       - I N T E G R A L  F E E D E R -                       
                                                                              
 v1 FN, 2020, v2 2021                                                         
------------------------------------------------------------------------------


Reading SHARK input file co_0.SHARKINP.tmp ... ok
----------------------
SHARK INTEGRAL PACKAGE
----------------------

Number of atoms                             ...      2
Number of basis functions                   ...     26
Number of shells                            ...     14
Maximum angular momentum                    ...      1
Integral batch strategy                     ... SHARK/LIBINT Hybrid
[...]
Max COSX asymmetry :            0.00000085 Eh               0.00002 eV

Virial components:
Potential Energy   :         -226.27750058 Eh           -6157.32382 eV
Kinetic Energy     :          113.03278911 Eh            3075.77856 eV
Virial Ratio       :            2.00187488


DFT components:
N(Alpha)           :        6.999999543036 electrons
N(Beta)            :        6.999999543036 electrons
N(Total)           :       13.999999086071 electrons
E(X)               :      -10.603995641259 Eh       
E(C)               :       -0.572135140086 Eh       
E(XC)              :      -11.176130781345 Eh       
DFET-embed. en.    :        0.000000000000 Eh       

---------------
SCF CONVERGENCE
---------------

  Last Energy change         ...   -2.6503e-11  Tolerance :   1.0000e-08
  Last MAX-Density change    ...    4.9960e-16  Tolerance :   1.0000e-07
  Last RMS-Density change    ...    7.0737e-17  Tolerance :   5.0000e-09
  Last Orbital Gradient      ...    1.0129e-06  Tolerance :   1.0000e-05
  Last Orbital Rotation      ...    2.0538e-06  Tolerance :   1.0000e-05

             **** THE GBW FILE WAS UPDATED (co_0.gbw) ****
             **** DENSITY co_0.scfp WAS UPDATED ****
             **** ENERGY FILE WAS UPDATED (co_0.en.tmp) ****
             **** THE GBW FILE WAS UPDATED (co_0.gbw) ****
             **** DENSITY co_0.scfp WAS UPDATED ****
----------------
ORBITAL ENERGIES
----------------

  NO   OCC          E(Eh)            E(eV) 
   0   2.0000     -19.243476      -523.6416 
   1   2.0000     -10.311785      -280.5979 
   2   2.0000      -1.198534       -32.6138 
   3   2.0000      -0.572872       -15.5886 
   4   2.0000      -0.481499       -13.1022 
   5   2.0000      -0.481499       -13.1022 
   6   2.0000      -0.380707       -10.3596 
   7   0.0000      -0.045507        -1.2383 
   8   0.0000      -0.045507        -1.2383 
   9   0.0000       0.213237         5.8025 
  10   0.0000       0.384076        10.4512 
  11   0.0000       0.384076        10.4512 
  12   0.0000       0.434435        11.8216 
  13   0.0000       0.643172        17.5016 
  14   0.0000       0.756751        20.5923 
  15   0.0000       0.791968        21.5505 
  16   0.0000       0.791968        21.5505 
  17   0.0000       1.305621        35.5277 
  18   0.0000       2.520604        68.5891 
  19   0.0000       2.520604        68.5891 
  20   0.0000       2.628234        71.5179 
  21   0.0000       4.700055       127.8950 
  22   0.0000       4.700055       127.8950 
  23   0.0000       4.832843       131.5083 
  24   0.0000      23.188953       631.0035 
  25   0.0000      49.678771      1351.8281 

                    ********************************
                    * MULLIKEN POPULATION ANALYSIS *
                    ********************************

-----------------------
MULLIKEN ATOMIC CHARGES
-----------------------
   0 C :    0.188678
   1 O :   -0.188678
Sum of atomic charges:   -0.0000000

--------------------------------
MULLIKEN REDUCED ORBITAL CHARGES
--------------------------------
  0 C s       :     3.910588  s :     3.910588
      pz      :     0.531165  p :     1.900734
      px      :     0.838404
      py      :     0.531165
  1 O s       :     3.877628  s :     3.877628
      pz      :     1.468835  p :     4.311050
      px      :     1.373380
      py      :     1.468835


                     *******************************
                     * LOEWDIN POPULATION ANALYSIS *
                     *******************************

----------------------
LOEWDIN ATOMIC CHARGES
----------------------
   0 C :    0.072962
   1 O :   -0.072962

-------------------------------
LOEWDIN REDUCED ORBITAL CHARGES
-------------------------------
  0 C s       :     3.609841  s :     3.609841
      pz      :     0.566544  p :     2.317198
      px      :     1.184109
      py      :     0.566544
  1 O s       :     3.624332  s :     3.624332
      pz      :     1.433456  p :     4.448630
      px      :     1.581718
      py      :     1.433456


                      *****************************
                      * MAYER POPULATION ANALYSIS *
                      *****************************

  NA   - Mulliken gross atomic population
  ZA   - Total nuclear charge
  QA   - Mulliken gross atomic charge
  VA   - Mayer's total valence
  BVA  - Mayer's bonded valence
  FA   - Mayer's free valence

  ATOM       NA         ZA         QA         VA         BVA        FA
  0 C      5.8113     6.0000     0.1887     2.2611     2.2611    -0.0000
  1 O      8.1887     8.0000    -0.1887     2.2611     2.2611    -0.0000

  Mayer bond orders larger than 0.100000
B(  0-C ,  1-O ) :   2.2611 

-------
TIMINGS
-------

Total SCF time: 0 days 0 hours 0 min 0 sec 

Total time                  ....       0.660 sec
Sum of individual times     ....       0.639 sec  ( 96.9%)

Fock matrix formation       ....       0.288 sec  ( 43.6%)
  Split-RI-J                ....       0.043 sec  ( 14.8% of F)
  Chain of spheres X        ....       0.190 sec  ( 65.9% of F)
  XC integration            ....       0.058 sec  ( 20.3% of F)
    Basis function eval.    ....       0.020 sec  ( 34.8% of XC)
    Density eval.           ....       0.012 sec  ( 20.7% of XC)
    XC-Functional eval.     ....       0.012 sec  ( 20.7% of XC)
    XC-Potential eval.      ....       0.006 sec  ( 10.3% of XC)
Diagonalization             ....       0.000 sec  (  0.0%)
Density matrix formation    ....       0.000 sec  (  0.0%)
Population analysis         ....       0.002 sec  (  0.3%)
Initial guess               ....       0.000 sec  (  0.0%)
Orbital Transformation      ....       0.000 sec  (  0.0%)
Orbital Orthonormalization  ....       0.000 sec  (  0.0%)
DIIS solution               ....       0.000 sec  (  0.0%)
SOSCF solution              ....       0.000 sec  (  0.0%)
Grid generation             ....       0.349 sec  ( 52.9%)

Maximum memory used throughout the entire SCF-calculation: 41.7 MB


-------------------------------------------------------------------------------
                          DFT DISPERSION CORRECTION                            
                                                                               
                              DFTD3 V3.1  Rev 1                                
                          USING Becke-Johnson damping                          
-------------------------------------------------------------------------------
The B3LYP functional is recognized
Active option DFTDOPT                   ...         4   

molecular C6(AA) [au] = 100.822025 


            DFT-D V3
 parameters
 s6 scaling factor         :     1.0000 
 a1 scaling factor         :     0.3981 
 s8 scaling factor         :     1.9889 
 a2 scaling factor         :     4.4211 
 ad hoc parameters k1-k3   :    16.0000     1.3333    -4.0000 

 Edisp/kcal,au: -0.456638201484  -0.000727699217 
 E6   /kcal   :  -0.209191369 
 E8   /kcal   :  -0.247446832 
 % E8         :  54.188815476 

-------------------------   ----------------
Dispersion correction           -0.000727699
-------------------------   ----------------


-------------------------   --------------------
FINAL SINGLE POINT ENERGY      -113.245439173750
-------------------------   --------------------

                                *** OPTIMIZATION RUN DONE ***

                            ***************************************
                            *     ORCA property calculations      *
                            ***************************************

                                    ---------------------
                                    Active property flags
                                    ---------------------
   (+) Dipole Moment


------------------------------------------------------------------------------
                       ORCA ELECTRIC PROPERTIES CALCULATION
------------------------------------------------------------------------------

Dipole Moment Calculation                       ... on
Quadrupole Moment Calculation                   ... off
Polarizability Calculation                      ... off
GBWName                                         ... co_0.gbw
Electron density                                ... co_0.scfp
The origin for moment calculation is the CENTER OF MASS  = ( 1.571663,  0.000000  0.000000)

-------------
DIPOLE MOMENT
-------------
                                X             Y             Z
Electronic contribution:     -0.04078      -0.00000      -0.00000
Nuclear contribution   :      0.00728       0.00000       0.00000
                        -----------------------------------------
Total Dipole Moment    :     -0.03351      -0.00000      -0.00000
                        -----------------------------------------
Magnitude (a.u.)       :      0.03351
Magnitude (Debye)      :      0.08517



--------------------
Rotational spectrum 
--------------------
 
Rotational constants in cm-1:     0.000000     1.866128     1.866128 
Rotational constants in MHz :     0.000000 55945.099568 55945.099568 

 Dipole components along the rotational axes: 
x,y,z [a.u.] :    -0.033506    -0.000000    -0.000000 
x,y,z [Debye]:    -0.085165    -0.000000    -0.000000 

 

-------------------------------------------------------------------------------
                               ORCA SCF HESSIAN
-------------------------------------------------------------------------------

                   --------- SHARK INITIALIZATION DONE ---------

Hessian of the Kohn-Sham DFT energy:
Kohn-Sham wavefunction type                      ... RKS
Hartree-Fock exchange scaling                    ...    0.200
Number of operators                              ...    1
Number of atoms                                  ...    2
Basis set dimensions                             ...   26
Integral neglect threshold                       ... 2.5e-11
Integral primitive cutoff                        ... 2.5e-12

Setting up DFT Hessian calculations              ... 

HESS GRID
---------

General Integration Accuracy     IntAcc      ... 4.959
Radial Grid Type                 RadialGrid  ... OptM3 with GC (2021)
Angular Grid (max. ang.)         AngularGrid ... 7 (Lebedev-770)
Angular grid pruning method      GridPruning ... 4 (adaptive)
Weight generation scheme         WeightScheme... Becke
Basis function cutoff            BFCut       ... 1.0000e-11
Integration weight cutoff        WCut        ... 1.0000e-14
Angular grids for H and He will be reduced by one unit
Partially contracted basis set               ... off
Rotationally invariant grid construction     ... off

Total number of grid points                  ...    41004
Total number of batches                      ...      642
Average number of points per batch           ...       63
Average number of grid points per atom       ...    20502

Building densities                               ... done   (      0.0 sec)
Calculating rho(r) on the grid                   ... done   (      0.0 sec)
Building xc-kernel on the grid                   ... done   (      0.0 sec)
                                                     done   (      0.6 sec)

Nuclear repulsion Hessian  (SHARK)               ... done   (      0.0 sec)

----------------------------------------------
Forming right-hand sides of CP-SCF equations     ...
----------------------------------------------
One electron integral derivatives  (SHARK)       ... done   (      0.0 sec)
Transforming the overlap derivative matrices     ... done   (      0.0 sec)
Making the Q(x) pseudodensities                  ... done   (      0.0 sec)
Adding the E*S(x)*S(y) terms to the Hessian      ... done   (      0.0 sec)
Calculating energy weighted overlap derivatives  ... done   (      0.0 sec)
Two electron integral derivatives (SHARK-RI)     ... done   (      0.0 sec)
Exchange-correlation integral derivatives        ... done   (      0.4 sec)
tr(F(y)Q(x)) contribution to the Hessian         ... done   (      0.0 sec)
Response fock operator R(S(x)) (SHARK-RIJCOSX)   ... done   (      0.2 sec)
XC Response fock operator R(S(x))                ... done   (      0.1 sec)
tr(F(y)S(x)) contribution to the Hessian         ... done   (      0.0 sec)
Transforming and finalizing RHSs                 ... done   (      0.0 sec)

----------------------------------------------
Solving the CP-SCF equations (RIJCOSX)           ...
----------------------------------------------
     CP-SCF ITERATION   0:   5.5212e-01 (   0.1 sec   0/  6 done)
     CP-SCF ITERATION   1:   6.0808e-02 (   0.1 sec   0/  6 done)
     CP-SCF ITERATION   2:   2.3361e-03 (   0.1 sec   0/  6 done)
     CP-SCF ITERATION   3:   2.1716e-04 (   0.1 sec   4/  6 done)
     CP-SCF ITERATION   4:   1.3598e-05 (   0.1 sec   6/  6 done)
                    *** THE CP-SCF HAS CONVERGED ***

                                                 ... done   (      0.4 sec)
Forming perturbed density Hessian contributions  ... done   (      0.0 sec)
2nd integral derivative contribs (SHARK-RI)      ... done   (      0.1 sec)
Exchange-correlation Hessian                     ... done   (      0.6 sec)
Dispersion correction in the Hessian             ... done   (      0.2 sec)
Dipole derivatives                               ... (center of mass:  1.571663,  0.000000  0.000000)done   (      0.0 sec)

Total SCF Hessian time: 0 days 0 hours 0 min 2 sec 

Writing the Hessian file to the disk             ... done


Maximum memory used throughout the entire SCFHESS-calculation: 48.6 MB

-----------------------
VIBRATIONAL FREQUENCIES
-----------------------

Scaling factor for frequencies =  1.000000000  (already applied!)

   0:         0.00 cm**-1
   1:         0.00 cm**-1
   2:         0.00 cm**-1
   3:         0.00 cm**-1
   4:         0.00 cm**-1
   5:      2061.47 cm**-1


------------
NORMAL MODES
------------

These modes are the Cartesian displacements weighted by the diagonal matrix
M(i,i)=1/sqrt(m[i]) where m[i] is the mass of the displaced atom
Thus, these vectors are normalized but *not* orthogonal

                  0          1          2          3          4          5    
      0       0.000000   0.000000   0.000000   0.000000   0.000000  -0.799718
      1       0.000000   0.000000   0.000000   0.000000   0.000000   0.000000
      2       0.000000   0.000000   0.000000   0.000000   0.000000   0.000000
      3       0.000000   0.000000   0.000000   0.000000   0.000000   0.600376
      4       0.000000   0.000000   0.000000   0.000000   0.000000   0.000000
      5       0.000000   0.000000   0.000000   0.000000   0.000000   0.000000


-----------
IR SPECTRUM
-----------

 Mode   freq       eps      Int      T**2         TX        TY        TZ
       cm**-1   L/(mol*cm) km/mol    a.u.
----------------------------------------------------------------------------
  5:   2061.47   0.013853   70.01  0.002097  (-0.045793 -0.000000  0.000000)

* The epsilon (eps) is given for a Dirac delta lineshape.
** The dipole moment derivative (T) already includes vibrational overlap.

The first frequency considered to be a vibration is 5
The total number of vibrations considered is 1


--------------------------
THERMOCHEMISTRY AT 298.15K
--------------------------

Temperature         ... 298.15 K
Pressure            ... 1.00 atm
Total Mass          ... 28.01 AMU
The molecule is recognized as being linear

Throughout the following assumptions are being made:
  (1) The electronic state is orbitally nondegenerate
  (2) There are no thermally accessible electronically excited states
  (3) Hindered rotations indicated by low frequency modes are not
      treated as such but are treated as vibrations and this may
      cause some error
  (4) All equations used are the standard statistical mechanics
      equations for an ideal gas
  (5) All vibrations are strictly harmonic

freq.    2061.47  E(vib)   ...       0.00 

------------
INNER ENERGY
------------

The inner energy is: U= E(el) + E(ZPE) + E(vib) + E(rot) + E(trans)
    E(el)   - is the total energy from the electronic structure calculation
              = E(kin-el) + E(nuc-el) + E(el-el) + E(nuc-nuc)
    E(ZPE)  - the the zero temperature vibrational energy from the frequency calculation
    E(vib)  - the the finite temperature correction to E(ZPE) due to population
              of excited vibrational states
    E(rot)  - is the rotational thermal energy
    E(trans)- is the translational thermal energy

Summary of contributions to the inner energy U:
Electronic energy                ...   -113.24543917 Eh
Zero point energy                ...      0.00469638 Eh       2.95 kcal/mol
Thermal vibrational correction   ...      0.00000045 Eh       0.00 kcal/mol
Thermal rotational correction    ...      0.00094418 Eh       0.59 kcal/mol
Thermal translational correction ...      0.00141627 Eh       0.89 kcal/mol
-----------------------------------------------------------------------
Total thermal energy                   -113.23838190 Eh


Summary of corrections to the electronic energy:
(perhaps to be used in another calculation)
Total thermal correction                  0.00236090 Eh       1.48 kcal/mol
Non-thermal (ZPE) correction              0.00469638 Eh       2.95 kcal/mol
-----------------------------------------------------------------------
Total correction                          0.00705728 Eh       4.43 kcal/mol


--------
ENTHALPY
--------

The enthalpy is H = U + kB*T
                kB is Boltzmann's constant
Total free energy                 ...   -113.23838190 Eh 
Thermal Enthalpy correction       ...      0.00094421 Eh       0.59 kcal/mol
-----------------------------------------------------------------------
Total Enthalpy                    ...   -113.23743769 Eh


Note: Rotational entropy computed according to Herzberg 
Infrared and Raman Spectra, Chapter V,1, Van Nostrand Reinhold, 1945 
Point Group:  Cinfv, Symmetry Number:   1  
Rotational constants in cm-1:     0.000000     1.866128     1.866128 

Vibrational entropy computed according to the QRRHO of S. Grimme
Chem.Eur.J. 2012 18 9955


-------
ENTROPY
-------

The entropy contributions are T*S = T*(S(el)+S(vib)+S(rot)+S(trans))
     S(el)   - electronic entropy
     S(vib)  - vibrational entropy
     S(rot)  - rotational entropy
     S(trans)- translational entropy
The entropies will be listed as multiplied by the temperature to get
units of energy

Electronic entropy                ...      0.00000000 Eh      0.00 kcal/mol
Vibrational entropy               ...      0.00000049 Eh      0.00 kcal/mol
Rotational entropy                ...      0.00539122 Eh      3.38 kcal/mol
Translational entropy             ...      0.01706888 Eh     10.71 kcal/mol
-----------------------------------------------------------------------
Final entropy term                ...      0.02246060 Eh     14.09 kcal/mol


-------------------
GIBBS FREE ENERGY
-------------------

The Gibbs free energy is G = H - T*S

Total enthalpy                    ...   -113.23743769 Eh 
Total entropy correction          ...     -0.02246060 Eh    -14.09 kcal/mol
-----------------------------------------------------------------------
Final Gibbs free energy         ...   -113.25989828 Eh

For completeness - the Gibbs free energy minus the electronic energy
G-E(el)                           ...     -0.01445911 Eh     -9.07 kcal/mol


Timings for individual modules:

Sum of individual times         ...       14.924 sec (=   0.249 min)
GTO integral calculation        ...        0.397 sec (=   0.007 min)   2.7 %
SCF iterations                  ...        9.376 sec (=   0.156 min)  62.8 %
SCF Gradient evaluation         ...        2.090 sec (=   0.035 min)  14.0 %
Geometry relaxation             ...        0.198 sec (=   0.003 min)   1.3 %
Analytical frequency calculation...        2.864 sec (=   0.048 min)  19.2 %
                             ****ORCA TERMINATED NORMALLY****
TOTAL RUN TIME: 0 days 0 hours 0 minutes 15 seconds 311 msec
