
                                 *****************
                                 * O   R   C   A *
                                 *****************

                                            #,                                       
                                            ###                                      
                                            ####                                     
                                            #####                                    
                                            ######                                   
                                           ########,                                 
                                     ,,################,,,,,                         
                               ,,#################################,,                 
                          ,,##########################################,,             
                       ,#########################################, ''#####,          
                    ,#############################################,,   '####,        
                  ,##################################################,,,,####,       
                ,###########''''           ''''###############################       
              ,#####''   ,,,,##########,,,,          '''####'''          '####       
            ,##' ,,,,###########################,,,                        '##       
           ' ,,###''''                  '''############,,,                           
         ,,##''                                '''############,,,,        ,,,,,,###''
      ,#''                                            '''#######################'''  
     '                                                          ''''####''''         
             ,#######,   #######,   ,#######,      ##                                
            ,#'     '#,  ##    ##  ,#'     '#,    #''#        ######   ,####,        
            ##       ##  ##   ,#'  ##            #'  '#       #        #'  '#        
            ##       ##  #######   ##           ,######,      #####,   #    #        
            '#,     ,#'  ##    ##  '#,     ,#' ,#      #,         ##   #,  ,#        
             '#######'   ##     ##  '#######'  #'      '#     #####' # '####'        



                  #######################################################
                  #                        -***-                        #
                  #          Department of theory and spectroscopy      #
                  #    Directorship and core code : Frank Neese         #
                  #        Max Planck Institute fuer Kohlenforschung    #
                  #                Kaiser Wilhelm Platz 1               #
                  #                 D-45470 Muelheim/Ruhr               #
                  #                      Germany                        #
                  #                                                     #
                  #                  All rights reserved                #
                  #                        -***-                        #
                  #######################################################


                         Program Version 5.0.3 -  RELEASE  -


 With contributions from (in alphabetic order):
   Daniel Aravena         : Magnetic Suceptibility
   Michael Atanasov       : Ab Initio Ligand Field Theory (pilot matlab implementation)
   Alexander A. Auer      : GIAO ZORA, VPT2 properties, NMR spectrum
   Ute Becker             : Parallelization
   Giovanni Bistoni       : ED, misc. LED, open-shell LED, HFLD
   Martin Brehm           : Molecular dynamics
   Dmytro Bykov           : SCF Hessian
   Vijay G. Chilkuri      : MRCI spin determinant printing, contributions to CSF-ICE
   Dipayan Datta          : RHF DLPNO-CCSD density
   Achintya Kumar Dutta   : EOM-CC, STEOM-CC
   Dmitry Ganyushin       : Spin-Orbit,Spin-Spin,Magnetic field MRCI
   Miquel Garcia          : C-PCM and meta-GGA Hessian, CC/C-PCM, Gaussian charge scheme
   Yang Guo               : DLPNO-NEVPT2, F12-NEVPT2, CIM, IAO-localization
   Andreas Hansen         : Spin unrestricted coupled pair/coupled cluster methods
   Benjamin Helmich-Paris : MC-RPA, TRAH-SCF, COSX integrals
   Lee Huntington         : MR-EOM, pCC
   Robert Izsak           : Overlap fitted RIJCOSX, COSX-SCS-MP3, EOM
   Marcus Kettner         : VPT2
   Christian Kollmar      : KDIIS, OOCD, Brueckner-CCSD(T), CCSD density, CASPT2, CASPT2-K
   Simone Kossmann        : Meta GGA functionals, TD-DFT gradient, OOMP2, MP2 Hessian
   Martin Krupicka        : Initial AUTO-CI
   Lucas Lang             : DCDCAS
   Marvin Lechner         : AUTO-CI (C++ implementation), FIC-MRCC
   Dagmar Lenk            : GEPOL surface, SMD
   Dimitrios Liakos       : Extrapolation schemes; Compound Job, initial MDCI parallelization
   Dimitrios Manganas     : Further ROCIS development; embedding schemes
   Dimitrios Pantazis     : SARC Basis sets
   Anastasios Papadopoulos: AUTO-CI, single reference methods and gradients
   Taras Petrenko         : DFT Hessian,TD-DFT gradient, ASA, ECA, R-Raman, ABS, FL, XAS/XES, NRVS
   Peter Pinski           : DLPNO-MP2, DLPNO-MP2 Gradient
   Christoph Reimann      : Effective Core Potentials
   Marius Retegan         : Local ZFS, SOC
   Christoph Riplinger    : Optimizer, TS searches, QM/MM, DLPNO-CCSD(T), (RO)-DLPNO pert. Triples
   Tobias Risthaus        : Range-separated hybrids, TD-DFT gradient, RPA, STAB
   Michael Roemelt        : Original ROCIS implementation
   Masaaki Saitow         : Open-shell DLPNO-CCSD energy and density
   Barbara Sandhoefer     : DKH picture change effects
   Avijit Sen             : IP-ROCIS
   Kantharuban Sivalingam : CASSCF convergence, NEVPT2, FIC-MRCI
   Bernardo de Souza      : ESD, SOC TD-DFT
   Georgi Stoychev        : AutoAux, RI-MP2 NMR, DLPNO-MP2 response
   Willem Van den Heuvel  : Paramagnetic NMR
   Boris Wezisla          : Elementary symmetry handling
   Frank Wennmohs         : Technical directorship


 We gratefully acknowledge several colleagues who have allowed us to
 interface, adapt or use parts of their codes:
   Stefan Grimme, W. Hujo, H. Kruse, P. Pracht,  : VdW corrections, initial TS optimization,
                  C. Bannwarth, S. Ehlert          DFT functionals, gCP, sTDA/sTD-DF
   Ed Valeev, F. Pavosevic, A. Kumar             : LibInt (2-el integral package), F12 methods
   Garnet Chan, S. Sharma, J. Yang, R. Olivares  : DMRG
   Ulf Ekstrom                                   : XCFun DFT Library
   Mihaly Kallay                                 : mrcc  (arbitrary order and MRCC methods)
   Jiri Pittner, Ondrej Demel                    : Mk-CCSD
   Frank Weinhold                                : gennbo (NPA and NBO analysis)
   Christopher J. Cramer and Donald G. Truhlar   : smd solvation model
   Lars Goerigk                                  : TD-DFT with DH, B97 family of functionals
   V. Asgeirsson, H. Jonsson                     : NEB implementation
   FAccTs GmbH                                   : IRC, NEB, NEB-TS, DLPNO-Multilevel, CI-OPT
                                                   MM, QMMM, 2- and 3-layer-ONIOM, Crystal-QMMM,
                                                   LR-CPCM, SF, NACMEs, symmetry and pop. for TD-DFT,
                                                   nearIR, NL-DFT gradient (VV10), updates on ESD,
                                                   ML-optimized integration grids
   S Lehtola, MJT Oliveira, MAL Marques          : LibXC Library
   Liviu Ungur et al                             : ANISO software


 Your calculation uses the libint2 library for the computation of 2-el integrals
 For citations please refer to: http://libint.valeyev.net

 Your ORCA version has been built with support for libXC version: 5.1.0
 For citations please refer to: https://tddft.org/programs/libxc/

 This ORCA versions uses:
   CBLAS   interface :  Fast vector & matrix operations
   LAPACKE interface :  Fast linear algebra routines
   SCALAPACK package :  Parallel linear algebra routines
   Shared memory     :  Shared parallel matrices
   BLAS/LAPACK       :  OpenBLAS 0.3.19 NO_AFFINITY VORTEX SINGLE_THREADED
        Core in use  :  VORTEX
   Copyright (c) 2011-2014, The OpenBLAS Project


Your calculation utilizes the atom-pairwise dispersion correction
with the Becke-Johnson damping scheme (D3BJ)
Cite in your paper:
S.Grimme, S.Ehrlich, L.Goerigk, J Comput Chem, (2011), 32, 1456–1465 
S.Grimme, J.Antony, S.Ehrlich and H.Krieg, J.Chem.Phys., 132, (2010), 154104 
   

================================================================================

----- Orbital basis set information -----
Your calculation utilizes the basis: 6-311G
   H, Li - Ne  : R. Krishnan, J. S. Binkley, R. Seeger and J. A. Pople, J. Chem. Phys. 72, 650 (1980).
   Na - Ar     : A. D. McLean and G. S. Chandler J. Chem. Phys. 72, 5639, (1980).
   K  - Ca     : J.-P. Blaudeau, M. P. McGrath, L. A. Curtiss and L. Radom, J. Chem. Phys. 107, 5016 (1997).
   Ga - Kr     : L. A. Curtiss, M. P. McGrath, J.-P. Blandeau, N. E. Davis, R. C. Binning and L. Radom, J. Chem. Phys. 103, 6104 (1995).

----- AuxJ basis set information -----
Your calculation utilizes the AutoAux generation procedure.
  G. L. Stoychev, A. A. Auer, F. Neese, J. Chem. Theory Comput. 13, 554 (2017)

----- AuxC basis set information -----
Your calculation utilizes the AutoAux generation procedure.
  G. L. Stoychev, A. A. Auer, F. Neese, J. Chem. Theory Comput. 13, 554 (2017)

----- AuxJK basis set information -----
Your calculation utilizes the AutoAux generation procedure.
  G. L. Stoychev, A. A. Auer, F. Neese, J. Chem. Theory Comput. 13, 554 (2017)

================================================================================
                                        WARNINGS
                       Please study these warnings very carefully!
================================================================================

WARNING: Old DensityContainer found on disk!
         Will remove this file - 
         If you want to keep old densities, please start your calculation with a different basename. 


WARNING: your system is open-shell and RHF/RKS was chosen
  ===> : WILL SWITCH to UHF/UKS


WARNING: Geometry Optimization
  ===> : Switching off AutoStart
         For restart on a previous wavefunction, please use MOREAD

INFO   : the flag for use of the SHARK integral package has been found!

================================================================================
                                       INPUT FILE
================================================================================
NAME = co_n.inp
|  1> !B3LYP D3BJ 6-311G
|  2> !RIJCOSX AutoAux printbasis
|  3> !Opt Freq
|  4> !DEFGRID3 TightSCF
|  5> *xyz -1 2
|  6> C 0.00000000000000 0.00000000000000 0.00000000000000
|  7> O 1.50000000000000 0.00000000000000 0.00000000000000
|  8> **                         ****END OF INPUT****
================================================================================

                       *****************************
                       * Geometry Optimization Run *
                       *****************************

Geometry optimization settings:
Update method            Update   .... BFGS
Choice of coordinates    CoordSys .... Z-matrix Internals
Initial Hessian          InHess   .... Almoef's Model

Convergence Tolerances:
Energy Change            TolE     ....  5.0000e-06 Eh
Max. Gradient            TolMAXG  ....  3.0000e-04 Eh/bohr
RMS Gradient             TolRMSG  ....  1.0000e-04 Eh/bohr
Max. Displacement        TolMAXD  ....  4.0000e-03 bohr
RMS Displacement         TolRMSD  ....  2.0000e-03 bohr
Strict Convergence                ....  False
------------------------------------------------------------------------------
                        ORCA OPTIMIZATION COORDINATE SETUP
------------------------------------------------------------------------------

The optimization will be done in new redundant internal coordinates
Making redundant internal coordinates   ...  (new redundants) done
Evaluating the initial hessian          ...  (Almloef) done
Evaluating the coordinates              ...  done
Calculating the B-matrix                .... done
Calculating the G-matrix                .... done
Diagonalizing the G-matrix              .... done
The first mode is                       ....    0
The number of degrees of freedom        ....    1

    -----------------------------------------------------------------
                    Redundant Internal Coordinates


    -----------------------------------------------------------------
         Definition                    Initial Value    Approx d2E/dq
    -----------------------------------------------------------------
      1. B(O   1,C   0)                  1.5000         0.373575   
    -----------------------------------------------------------------

Number of atoms                         .... 2
Number of degrees of freedom            .... 1

         *************************************************************
         *                GEOMETRY OPTIMIZATION CYCLE   1            *
         *************************************************************
---------------------------------
CARTESIAN COORDINATES (ANGSTROEM)
---------------------------------
  C      0.000000    0.000000    0.000000
  O      1.500000    0.000000    0.000000

----------------------------
CARTESIAN COORDINATES (A.U.)
----------------------------
  NO LB      ZA    FRAG     MASS         X           Y           Z
   0 C     6.0000    0    12.011    0.000000    0.000000    0.000000
   1 O     8.0000    0    15.999    2.834589    0.000000    0.000000

--------------------------------
INTERNAL COORDINATES (ANGSTROEM)
--------------------------------
 C      0   0   0     0.000000000000     0.00000000     0.00000000
 O      1   0   0     1.500000000000     0.00000000     0.00000000

---------------------------
INTERNAL COORDINATES (A.U.)
---------------------------
 C      0   0   0     0.000000000000     0.00000000     0.00000000
 O      1   0   0     2.834589200882     0.00000000     0.00000000

---------------------
BASIS SET INFORMATION
---------------------
There are 2 groups of distinct atoms

 Group   1 Type C   : 11s5p contracted to 4s3p pattern {6311/311}
 Group   2 Type O   : 11s5p contracted to 4s3p pattern {6311/311}

Atom   0C    basis set group =>   1
Atom   1O    basis set group =>   2

-------------------------
BASIS SET IN INPUT FORMAT
-------------------------

 # Basis set for element : C 
 NewGTO C 
 S 6 
   1    4563.2400000000      0.0019666502
   2     682.0240000000      0.0152306019
   3     154.9730000000      0.0761269097
   4      44.4553000000      0.2608010331
   5      13.0290000000      0.6164620782
   6       1.8277300000      0.2210060280
 S 3 
   1      20.9642000000      0.1146600807
   2       4.8033100000      0.9199996477
   3       1.4593300000     -0.0030306821
 P 3 
   1      20.9642000000      0.0402486927
   2       4.8033100000      0.2375939567
   3       1.4593300000      0.8158538515
 S 1 
   1       0.4834560000      1.0000000000
 P 1 
   1       0.4834560000      1.0000000000
 S 1 
   1       0.1455850000      1.0000000000
 P 1 
   1       0.1455850000      1.0000000000
  end;

 # Basis set for element : O 
 NewGTO O 
 S 6 
   1    8588.5000000000      0.0018951501
   2    1297.2300000000      0.0143859006
   3     299.2960000000      0.0707320031
   4      87.3771000000      0.2400010105
   5      25.6789000000      0.5947970261
   6       3.7400400000      0.2808020123
 S 3 
   1      42.1175000000      0.1138890124
   2       9.6283700000      0.9208111006
   3       2.8533200000     -0.0032744704
 P 3 
   1      42.1175000000      0.0365113974
   2       9.6283700000      0.2371529830
   3       2.8533200000      0.8197019412
 S 1 
   1       0.9056610000      1.0000000000
 P 1 
   1       0.9056610000      1.0000000000
 S 1 
   1       0.2556110000      1.0000000000
 P 1 
   1       0.2556110000      1.0000000000
  end;

---------------------------------
AUXILIARY/J BASIS SET INFORMATION
---------------------------------
There are 2 groups of distinct atoms

 Group   1 Type C   : 14s12p8d contracted to 14s12p8d pattern {11111111111111/111111111111/11111111}
 Group   2 Type O   : 14s12p8d contracted to 14s12p8d pattern {11111111111111/111111111111/11111111}

Atom   0C    basis set group =>   1
Atom   1O    basis set group =>   2

-------------------------------------
AUXILIARY/J BASIS SET IN INPUT FORMAT
-------------------------------------

 # Auxiliary/J basis set for element : C 
 NewAuxJGTO C 
 S 1 
   1     606.3022679937      1.0000000000
 S 1 
   1     336.8345933299      1.0000000000
 S 1 
   1     187.1303296277      1.0000000000
 S 1 
   1     103.9612942376      1.0000000000
 S 1 
   1      57.7562745765      1.0000000000
 S 1 
   1      32.0868192091      1.0000000000
 S 1 
   1      17.8260106717      1.0000000000
 S 1 
   1       9.9033392621      1.0000000000
 S 1 
   1       5.5018551456      1.0000000000
 S 1 
   1       3.0565861920      1.0000000000
 S 1 
   1       1.6981034400      1.0000000000
 S 1 
   1       0.9433908000      1.0000000000
 S 1 
   1       0.5241060000      1.0000000000
 S 1 
   1       0.2911700000      1.0000000000
 P 1 
   1     187.1303296277      1.0000000000
 P 1 
   1     103.9612942376      1.0000000000
 P 1 
   1      57.7562745765      1.0000000000
 P 1 
   1      32.0868192091      1.0000000000
 P 1 
   1      17.8260106717      1.0000000000
 P 1 
   1       9.9033392621      1.0000000000
 P 1 
   1       5.5018551456      1.0000000000
 P 1 
   1       3.0565861920      1.0000000000
 P 1 
   1       1.6981034400      1.0000000000
 P 1 
   1       0.9433908000      1.0000000000
 P 1 
   1       0.5241060000      1.0000000000
 P 1 
   1       0.2911700000      1.0000000000
 D 1 
   1      17.8260106717      1.0000000000
 D 1 
   1       9.9033392621      1.0000000000
 D 1 
   1       5.5018551456      1.0000000000
 D 1 
   1       3.0565861920      1.0000000000
 D 1 
   1       1.6981034400      1.0000000000
 D 1 
   1       0.9433908000      1.0000000000
 D 1 
   1       0.5241060000      1.0000000000
 D 1 
   1       0.2911700000      1.0000000000
  end;

 # Auxiliary/J basis set for element : O 
 NewAuxJGTO O 
 S 1 
   1    1064.5157744558      1.0000000000
 S 1 
   1     591.3976524755      1.0000000000
 S 1 
   1     328.5542513753      1.0000000000
 S 1 
   1     182.5301396529      1.0000000000
 S 1 
   1     101.4056331405      1.0000000000
 S 1 
   1      56.3364628558      1.0000000000
 S 1 
   1      31.2980349199      1.0000000000
 S 1 
   1      17.3877971777      1.0000000000
 S 1 
   1       9.6598873210      1.0000000000
 S 1 
   1       5.3666040672      1.0000000000
 S 1 
   1       2.9814467040      1.0000000000
 S 1 
   1       1.6563592800      1.0000000000
 S 1 
   1       0.9201996000      1.0000000000
 S 1 
   1       0.5112220000      1.0000000000
 P 1 
   1     328.5542513753      1.0000000000
 P 1 
   1     182.5301396529      1.0000000000
 P 1 
   1     101.4056331405      1.0000000000
 P 1 
   1      56.3364628558      1.0000000000
 P 1 
   1      31.2980349199      1.0000000000
 P 1 
   1      17.3877971777      1.0000000000
 P 1 
   1       9.6598873210      1.0000000000
 P 1 
   1       5.3666040672      1.0000000000
 P 1 
   1       2.9814467040      1.0000000000
 P 1 
   1       1.6563592800      1.0000000000
 P 1 
   1       0.9201996000      1.0000000000
 P 1 
   1       0.5112220000      1.0000000000
 D 1 
   1      31.2980349199      1.0000000000
 D 1 
   1      17.3877971777      1.0000000000
 D 1 
   1       9.6598873210      1.0000000000
 D 1 
   1       5.3666040672      1.0000000000
 D 1 
   1       2.9814467040      1.0000000000
 D 1 
   1       1.6563592800      1.0000000000
 D 1 
   1       0.9201996000      1.0000000000
 D 1 
   1       0.5112220000      1.0000000000
  end;

---------------------------------
AUXILIARY/C BASIS SET INFORMATION
---------------------------------
There are 2 groups of distinct atoms

 Group   1 Type C   : 14s12p8d contracted to 14s12p8d pattern {11111111111111/111111111111/11111111}
 Group   2 Type O   : 14s12p8d contracted to 14s12p8d pattern {11111111111111/111111111111/11111111}

Atom   0C    basis set group =>   1
Atom   1O    basis set group =>   2

-------------------------------------
AUXILIARY/C BASIS SET IN INPUT FORMAT
-------------------------------------

 # Auxiliary/C basis set for element : C 
 NewAuxCGTO C 
 S 1 
   1     606.3022679937      1.0000000000
 S 1 
   1     336.8345933299      1.0000000000
 S 1 
   1     187.1303296277      1.0000000000
 S 1 
   1     103.9612942376      1.0000000000
 S 1 
   1      57.7562745765      1.0000000000
 S 1 
   1      32.0868192091      1.0000000000
 S 1 
   1      17.8260106717      1.0000000000
 S 1 
   1       9.9033392621      1.0000000000
 S 1 
   1       5.5018551456      1.0000000000
 S 1 
   1       3.0565861920      1.0000000000
 S 1 
   1       1.6981034400      1.0000000000
 S 1 
   1       0.9433908000      1.0000000000
 S 1 
   1       0.5241060000      1.0000000000
 S 1 
   1       0.2911700000      1.0000000000
 P 1 
   1     187.1303296277      1.0000000000
 P 1 
   1     103.9612942376      1.0000000000
 P 1 
   1      57.7562745765      1.0000000000
 P 1 
   1      32.0868192091      1.0000000000
 P 1 
   1      17.8260106717      1.0000000000
 P 1 
   1       9.9033392621      1.0000000000
 P 1 
   1       5.5018551456      1.0000000000
 P 1 
   1       3.0565861920      1.0000000000
 P 1 
   1       1.6981034400      1.0000000000
 P 1 
   1       0.9433908000      1.0000000000
 P 1 
   1       0.5241060000      1.0000000000
 P 1 
   1       0.2911700000      1.0000000000
 D 1 
   1      17.8260106717      1.0000000000
 D 1 
   1       9.9033392621      1.0000000000
 D 1 
   1       5.5018551456      1.0000000000
 D 1 
   1       3.0565861920      1.0000000000
 D 1 
   1       1.6981034400      1.0000000000
 D 1 
   1       0.9433908000      1.0000000000
 D 1 
   1       0.5241060000      1.0000000000
 D 1 
   1       0.2911700000      1.0000000000
  end;

 # Auxiliary/C basis set for element : O 
 NewAuxCGTO O 
 S 1 
   1    1064.5157744558      1.0000000000
 S 1 
   1     591.3976524755      1.0000000000
 S 1 
   1     328.5542513753      1.0000000000
 S 1 
   1     182.5301396529      1.0000000000
 S 1 
   1     101.4056331405      1.0000000000
 S 1 
   1      56.3364628558      1.0000000000
 S 1 
   1      31.2980349199      1.0000000000
 S 1 
   1      17.3877971777      1.0000000000
 S 1 
   1       9.6598873210      1.0000000000
 S 1 
   1       5.3666040672      1.0000000000
 S 1 
   1       2.9814467040      1.0000000000
 S 1 
   1       1.6563592800      1.0000000000
 S 1 
   1       0.9201996000      1.0000000000
 S 1 
   1       0.5112220000      1.0000000000
 P 1 
   1     328.5542513753      1.0000000000
 P 1 
   1     182.5301396529      1.0000000000
 P 1 
   1     101.4056331405      1.0000000000
 P 1 
   1      56.3364628558      1.0000000000
 P 1 
   1      31.2980349199      1.0000000000
 P 1 
   1      17.3877971777      1.0000000000
 P 1 
   1       9.6598873210      1.0000000000
 P 1 
   1       5.3666040672      1.0000000000
 P 1 
   1       2.9814467040      1.0000000000
 P 1 
   1       1.6563592800      1.0000000000
 P 1 
   1       0.9201996000      1.0000000000
 P 1 
   1       0.5112220000      1.0000000000
 D 1 
   1      31.2980349199      1.0000000000
 D 1 
   1      17.3877971777      1.0000000000
 D 1 
   1       9.6598873210      1.0000000000
 D 1 
   1       5.3666040672      1.0000000000
 D 1 
   1       2.9814467040      1.0000000000
 D 1 
   1       1.6563592800      1.0000000000
 D 1 
   1       0.9201996000      1.0000000000
 D 1 
   1       0.5112220000      1.0000000000
  end;

----------------------------------
AUXILIARY/JK BASIS SET INFORMATION
----------------------------------
There are 2 groups of distinct atoms

 Group   1 Type C   : 14s12p8d contracted to 14s12p8d pattern {11111111111111/111111111111/11111111}
 Group   2 Type O   : 14s12p8d contracted to 14s12p8d pattern {11111111111111/111111111111/11111111}

Atom   0C    basis set group =>   1
Atom   1O    basis set group =>   2

--------------------------------------
AUXILIARY/JK BASIS SET IN INPUT FORMAT
--------------------------------------

 # Auxiliary/JK basis set for element : C 
 NewAuxJKGTO C 
 S 1 
   1     606.3022679937      1.0000000000
 S 1 
   1     336.8345933299      1.0000000000
 S 1 
   1     187.1303296277      1.0000000000
 S 1 
   1     103.9612942376      1.0000000000
 S 1 
   1      57.7562745765      1.0000000000
 S 1 
   1      32.0868192091      1.0000000000
 S 1 
   1      17.8260106717      1.0000000000
 S 1 
   1       9.9033392621      1.0000000000
 S 1 
   1       5.5018551456      1.0000000000
 S 1 
   1       3.0565861920      1.0000000000
 S 1 
   1       1.6981034400      1.0000000000
 S 1 
   1       0.9433908000      1.0000000000
 S 1 
   1       0.5241060000      1.0000000000
 S 1 
   1       0.2911700000      1.0000000000
 P 1 
   1     187.1303296277      1.0000000000
 P 1 
   1     103.9612942376      1.0000000000
 P 1 
   1      57.7562745765      1.0000000000
 P 1 
   1      32.0868192091      1.0000000000
 P 1 
   1      17.8260106717      1.0000000000
 P 1 
   1       9.9033392621      1.0000000000
 P 1 
   1       5.5018551456      1.0000000000
 P 1 
   1       3.0565861920      1.0000000000
 P 1 
   1       1.6981034400      1.0000000000
 P 1 
   1       0.9433908000      1.0000000000
 P 1 
   1       0.5241060000      1.0000000000
 P 1 
   1       0.2911700000      1.0000000000
 D 1 
   1      17.8260106717      1.0000000000
 D 1 
   1       9.9033392621      1.0000000000
 D 1 
   1       5.5018551456      1.0000000000
 D 1 
   1       3.0565861920      1.0000000000
 D 1 
   1       1.6981034400      1.0000000000
 D 1 
   1       0.9433908000      1.0000000000
 D 1 
   1       0.5241060000      1.0000000000
 D 1 
   1       0.2911700000      1.0000000000
  end;

 # Auxiliary/JK basis set for element : O 
 NewAuxJKGTO O 
 S 1 
   1    1064.5157744558      1.0000000000
 S 1 
   1     591.3976524755      1.0000000000
 S 1 
   1     328.5542513753      1.0000000000
 S 1 
   1     182.5301396529      1.0000000000
 S 1 
   1     101.4056331405      1.0000000000
 S 1 
   1      56.3364628558      1.0000000000
 S 1 
   1      31.2980349199      1.0000000000
 S 1 
   1      17.3877971777      1.0000000000
 S 1 
   1       9.6598873210      1.0000000000
 S 1 
   1       5.3666040672      1.0000000000
 S 1 
   1       2.9814467040      1.0000000000
 S 1 
   1       1.6563592800      1.0000000000
 S 1 
   1       0.9201996000      1.0000000000
 S 1 
   1       0.5112220000      1.0000000000
 P 1 
   1     328.5542513753      1.0000000000
 P 1 
   1     182.5301396529      1.0000000000
 P 1 
   1     101.4056331405      1.0000000000
 P 1 
   1      56.3364628558      1.0000000000
 P 1 
   1      31.2980349199      1.0000000000
 P 1 
   1      17.3877971777      1.0000000000
 P 1 
   1       9.6598873210      1.0000000000
 P 1 
   1       5.3666040672      1.0000000000
 P 1 
   1       2.9814467040      1.0000000000
 P 1 
   1       1.6563592800      1.0000000000
 P 1 
   1       0.9201996000      1.0000000000
 P 1 
   1       0.5112220000      1.0000000000
 D 1 
   1      31.2980349199      1.0000000000
 D 1 
   1      17.3877971777      1.0000000000
 D 1 
   1       9.6598873210      1.0000000000
 D 1 
   1       5.3666040672      1.0000000000
 D 1 
   1       2.9814467040      1.0000000000
 D 1 
   1       1.6563592800      1.0000000000
 D 1 
   1       0.9201996000      1.0000000000
 D 1 
   1       0.5112220000      1.0000000000
  end;

------------------------------------------------------------------------------
                           ORCA GTO INTEGRAL CALCULATION
                           -- RI-GTO INTEGRALS CHOSEN --
------------------------------------------------------------------------------
------------------------------------------------------------------------------
                   ___                                                        
                  /   \      - P O W E R E D   B Y -                         
                 /     \                                                     
                 |  |  |   _    _      __       _____    __    __             
                 |  |  |  | |  | |    /  \     |  _  \  |  |  /  |          
                  \  \/   | |  | |   /    \    | | | |  |  | /  /          
                 / \  \   | |__| |  /  /\  \   | |_| |  |  |/  /          
                |  |  |   |  __  | /  /__\  \  |    /   |      \           
                |  |  |   | |  | | |   __   |  |    \   |  |\   \          
                \     /   | |  | | |  |  |  |  | |\  \  |  | \   \       
                 \___/    |_|  |_| |__|  |__|  |_| \__\ |__|  \__/        
                                                                              
                      - O R C A' S   B I G   F R I E N D -                    
                                      &                                       
                       - I N T E G R A L  F E E D E R -                       
                                                                              
 v1 FN, 2020, v2 2021                                                         
------------------------------------------------------------------------------


Reading SHARK input file co_n.SHARKINP.tmp ... ok
----------------------
SHARK INTEGRAL PACKAGE
----------------------

Number of atoms                             ...      2
Number of basis functions                   ...     26
Number of shells                            ...     14
Maximum angular momentum                    ...      1
Integral batch strategy                     ... SHARK/LIBINT Hybrid
RI-J (if used) integral strategy            ... SPLIT-RIJ (Revised 2003 algorithm where possible)
Printlevel                                  ...      1
Contraction scheme used                     ... SEGMENTED contraction
Coulomb Range Separation                    ... NOT USED
Exchange Range Separation                   ... NOT USED
Finite Nucleus Model                        ... NOT USED
Auxiliary Coulomb fitting basis             ... AVAILABLE
   # of basis functions in Aux-J            ...    180
   # of shells in Aux-J                     ...     68
   Maximum angular momentum in Aux-J        ...      2
Auxiliary J/K fitting basis                 ... AVAILABLE
   # of basis functions in Aux-JK           ...    180
   # of shells in Aux-JK                    ...     68
   Maximum angular momentum in Aux-JK       ...      2
Auxiliary Correlation fitting basis         ... AVAILABLE
   # of basis functions in Aux-C            ...    180
   # of shells in Aux-C                     ...     68
   Maximum angular momentum in Aux-C        ...      2
Auxiliary 'external' fitting basis          ... NOT available
Integral threshold                          ...     2.500000e-11
Primitive cut-off                           ...     2.500000e-12
Primitive pair pre-selection threshold      ...     2.500000e-12

Calculating pre-screening integrals         ... done (  0.0 sec) Dimension = 14
Organizing shell pair data                  ... done (  0.0 sec)
Shell pair information
Total number of shell pairs                 ...       105
Shell pairs after pre-screening             ...       105
Total number of primitive shell pairs       ...       570
Primitive shell pairs kept                  ...       491
          la=0 lb=0:     36 shell pairs
          la=1 lb=0:     48 shell pairs
          la=1 lb=1:     21 shell pairs

Calculating one electron integrals          ... done (  0.0 sec)
Calculating RI/J V-Matrix + Cholesky decomp.... done (  0.0 sec)
Calculating RI/JK V-Matrix + Cholesky decomp... done (  0.0 sec)
Calculating RI/C V-Matrix + Cholesky decomp.... done (  0.0 sec)
Calculating Nuclear repulsion               ... done (  0.0 sec) ENN=     16.933670665600 Eh

SHARK setup successfully completed in   0.0 seconds

Maximum memory used throughout the entire GTOINT-calculation: 6.1 MB
-------------------------------------------------------------------------------
                                 ORCA SCF
-------------------------------------------------------------------------------

------------
SCF SETTINGS
------------
Hamiltonian:
 Density Functional     Method          .... DFT(GTOs)
 Exchange Functional    Exchange        .... B88
   X-Alpha parameter    XAlpha          ....  0.666667
   Becke's b parameter  XBeta           ....  0.004200
 Correlation Functional Correlation     .... LYP
 LDA part of GGA corr.  LDAOpt          .... VWN-5
 Gradients option       PostSCFGGA      .... off
 Hybrid DFT is turned on
   Fraction HF Exchange ScalHFX         ....  0.200000
   Scaling of DF-GGA-X  ScalDFX         ....  0.720000
   Scaling of DF-GGA-C  ScalDFC         ....  0.810000
   Scaling of DF-LDA-C  ScalLDAC        ....  1.000000
   Perturbative correction              ....  0.000000
   Density functional embedding theory  .... OFF
   NL short-range parameter             ....  4.800000
 RI-approximation to the Coulomb term is turned on
   Number of AuxJ basis functions       .... 180
   RIJ-COSX (HFX calculated with COS-X)).... on


General Settings:
 Integral files         IntName         .... co_n
 Hartree-Fock type      HFTyp           .... UHF
 Total Charge           Charge          ....   -1
 Multiplicity           Mult            ....    2
 Number of Electrons    NEL             ....   15
 Basis Dimension        Dim             ....   26
 Nuclear Repulsion      ENuc            ....     16.9336706656 Eh

Convergence Acceleration:
 DIIS                   CNVDIIS         .... on
   Start iteration      DIISMaxIt       ....    12
   Startup error        DIISStart       ....  0.200000
   # of expansion vecs  DIISMaxEq       ....     5
   Bias factor          DIISBfac        ....   1.050
   Max. coefficient     DIISMaxC        ....  10.000
 Trust-Rad. Augm. Hess. CNVTRAH         .... auto
   Auto Start mean grad. ratio tolernc. ....  1.125000
   Auto Start start iteration           ....    20
   Auto Start num. interpolation iter.  ....    10
   Max. Number of Micro iterations      ....    16
   Max. Number of Macro iterations      .... Maxiter - #DIIS iter
   Number of Davidson start vectors     ....     2
   Converg. threshold I  (grad. norm)   ....   1.000e-05
   Converg. threshold II (energy diff.) ....   1.000e-08
   Grad. Scal. Fac. for Micro threshold ....   0.100
   Minimum threshold for Micro iter.    ....   0.010
   NR start threshold (gradient norm)   ....   0.001
   Initial trust radius                 ....   0.400
   Minimum AH scaling param. (alpha)    ....   1.000
   Maximum AH scaling param. (alpha)    .... 1000.000
   Orbital update algorithm             .... Taylor
   White noise on init. David. guess    .... on
   Maximum white noise                  ....   0.010
   Quad. conv. algorithm                .... NR
 SOSCF                  CNVSOSCF        .... off
 Level Shifting         CNVShift        .... on
   Level shift para.    LevelShift      ....    0.2500
   Turn off err/grad.   ShiftErr        ....    0.0010
 Zerner damping         CNVZerner       .... off
 Static damping         CNVDamp         .... on
   Fraction old density DampFac         ....    0.7000
   Max. Damping (<1)    DampMax         ....    0.9800
   Min. Damping (>=0)   DampMin         ....    0.0000
   Turn off err/grad.   DampErr         ....    0.1000
 Fernandez-Rico         CNVRico         .... off

SCF Procedure:
 Maximum # iterations   MaxIter         ....   125
 SCF integral mode      SCFMode         .... Direct
   Integral package                     .... SHARK and LIBINT hybrid scheme
 Reset frequency        DirectResetFreq ....    20
 Integral Threshold     Thresh          ....  2.500e-11 Eh
 Primitive CutOff       TCut            ....  2.500e-12 Eh

Convergence Tolerance:
 Convergence Check Mode ConvCheckMode   .... Total+1el-Energy
 Convergence forced     ConvForced      .... 0
 Energy Change          TolE            ....  1.000e-08 Eh
 1-El. energy change                    ....  1.000e-05 Eh
 DIIS Error             TolErr          ....  5.000e-07


Diagonalization of the overlap matrix:
Smallest eigenvalue                        ... 4.435e-02
Time for diagonalization                   ...    0.000 sec
Threshold for overlap eigenvalues          ... 1.000e-08
Number of eigenvalues below threshold      ... 0
Time for construction of square roots      ...    0.000 sec
Total time needed                          ...    0.000 sec

Time for model grid setup =    0.007 sec

------------------------------
INITIAL GUESS: MODEL POTENTIAL
------------------------------
Loading Hartree-Fock densities                     ... done
Calculating cut-offs                               ... done
Initializing the effective Hamiltonian             ... done
Setting up the integral package (SHARK)            ... done
Starting the Coulomb interaction                   ... done (   0.0 sec)
Reading the grid                                   ... done
Mapping shells                                     ... done
Starting the XC term evaluation                    ... done (   0.0 sec)
  promolecular density results
     # of electrons  =     13.999955814
     EX              =    -13.114041047
     EC              =     -0.472568153
     EX+EC           =    -13.586609200
Transforming the Hamiltonian                       ... done (   0.0 sec)
Diagonalizing the Hamiltonian                      ... done (   0.0 sec)
Back transforming the eigenvectors                 ... done (   0.0 sec)
Now organizing SCF variables                       ... done
                      ------------------
                      INITIAL GUESS DONE (   0.0 sec)
                      ------------------
-------------------
DFT GRID GENERATION
-------------------

General Integration Accuracy     IntAcc      ... 4.959
Radial Grid Type                 RadialGrid  ... OptM3 with GC (2021)
Angular Grid (max. ang.)         AngularGrid ... 6 (Lebedev-590)
Angular grid pruning method      GridPruning ... 4 (adaptive)
Weight generation scheme         WeightScheme... Becke
Basis function cutoff            BFCut       ... 1.0000e-11
Integration weight cutoff        WCut        ... 1.0000e-14
Angular grids for H and He will be reduced by one unit
Partially contracted basis set               ... off
Rotationally invariant grid construction     ... off

Total number of grid points                  ...    29109
Total number of batches                      ...      456
Average number of points per batch           ...       63
Average number of grid points per atom       ...    14554
Time for grid setup =    0.249 sec

--------------------
COSX GRID GENERATION
--------------------

GRIDX 1
-------
General Integration Accuracy     IntAcc      ... 4.020
Radial Grid Type                 RadialGrid  ... OptM3 with GC (2021)
Angular Grid (max. ang.)         AngularGrid ... 2 (Lebedev-110)
Angular grid pruning method      GridPruning ... 4 (adaptive)
Weight generation scheme         WeightScheme... Becke
Basis function cutoff            BFCut       ... 1.0000e-11
Integration weight cutoff        WCut        ... 1.0000e-14
Angular grids for H and He will be reduced by one unit
Partially contracted basis set               ... on
Rotationally invariant grid construction     ... off

Total number of grid points                  ...     3764
Total number of batches                      ...       59
Average number of points per batch           ...       63
Average number of grid points per atom       ...     1882
UseSFitting                                  ... on

GRIDX 2
-------
General Integration Accuracy     IntAcc      ... 4.338
Radial Grid Type                 RadialGrid  ... OptM3 with GC (2021)
Angular Grid (max. ang.)         AngularGrid ... 3 (Lebedev-194)
Angular grid pruning method      GridPruning ... 4 (adaptive)
Weight generation scheme         WeightScheme... Becke
Basis function cutoff            BFCut       ... 1.0000e-11
Integration weight cutoff        WCut        ... 1.0000e-14
Angular grids for H and He will be reduced by one unit
Partially contracted basis set               ... on
Rotationally invariant grid construction     ... off

Total number of grid points                  ...     8425
Total number of batches                      ...      133
Average number of points per batch           ...       63
Average number of grid points per atom       ...     4212
UseSFitting                                  ... on

GRIDX 3
-------
General Integration Accuracy     IntAcc      ... 4.871
Radial Grid Type                 RadialGrid  ... OptM3 with GC (2021)
Angular Grid (max. ang.)         AngularGrid ... 4 (Lebedev-302)
Angular grid pruning method      GridPruning ... 4 (adaptive)
Weight generation scheme         WeightScheme... Becke
Basis function cutoff            BFCut       ... 1.0000e-11
Integration weight cutoff        WCut        ... 1.0000e-14
Angular grids for H and He will be reduced by one unit
Partially contracted basis set               ... on
Rotationally invariant grid construction     ... off

Total number of grid points                  ...    14955
Total number of batches                      ...      235
Average number of points per batch           ...       63
Average number of grid points per atom       ...     7478
UseSFitting                                  ... on

Time for X-Grid setup             =    0.101 sec

--------------
SCF ITERATIONS
--------------
ITER       Energy         Delta-E        Max-DP      RMS-DP      [F,P]     Damp
               ***  Starting incremental Fock matrix formation  ***
  0   -112.9843008252   0.000000000000 0.05560965  0.00508341  0.2063904 0.7000
  1   -113.0675258970  -0.083225071849 0.02235365  0.00244127  0.0512035 0.7000
                               ***Turning on DIIS***
  2   -113.0794052116  -0.011879314587 0.08817699  0.00554979  0.0401495 0.0000
  3   -113.1355112551  -0.056106043493 0.02687643  0.00183893  0.0319295 0.0000
  4   -113.1392357460  -0.003724490913 0.00663298  0.00049014  0.0116710 0.0000
  5   -113.1397569486  -0.000521202582 0.00424159  0.00027965  0.0038906 0.0000
  6   -113.1398279690  -0.000071020412 0.00106378  0.00008022  0.0013816 0.0000
  7   -113.1398392470  -0.000011277991 0.00085585  0.00008542  0.0006591 0.0000
               *** Restarting incremental Fock matrix formation ***
                                   *** Resetting DIIS ***
  8   -113.1398471120  -0.000007865033 0.00056683  0.00004869  0.0005588 0.0000
  9   -113.1398484518  -0.000001339798 0.00018935  0.00002316  0.0007632 0.0000
 10   -113.1398503036  -0.000001851754 0.00064955  0.00006414  0.0003436 0.0000
 11   -113.1398525539  -0.000002250372 0.00026179  0.00002672  0.0001014 0.0000
 12   -113.1398528154  -0.000000261469 0.00005236  0.00000477  0.0000345 0.0000
 13   -113.1398528282  -0.000000012784 0.00001556  0.00000162  0.0000140 0.0000
 14   -113.1398528297  -0.000000001557 0.00000325  0.00000033  0.0000042 0.0000
 15   -113.1398528300  -0.000000000207 0.00000206  0.00000018  0.0000037 0.0000
                 **** Energy Check signals convergence ****

               *****************************************************
               *                     SUCCESS                       *
               *           SCF CONVERGED AFTER  16 CYCLES          *
               *****************************************************

Old exchange energy                            =     -2.676569122 Eh
New exchange energy                            =     -2.676570258 Eh
Exchange energy change after final integration =     -0.000001136 Eh
Total energy after final integration           =   -113.139853965 Eh
Final COS-X integration done in                =     0.087 sec

----------------
TOTAL SCF ENERGY
----------------

Total Energy       :         -113.13985397 Eh           -3078.69194 eV

Components:
Nuclear Repulsion  :           16.93367067 Eh             460.78860 eV
Electronic Energy  :         -130.07352463 Eh           -3539.48055 eV
One Electron Energy:         -192.67977859 Eh           -5243.08333 eV
Two Electron Energy:           62.60625396 Eh            1703.60278 eV
Max COSX asymmetry :            0.00000004 Eh               0.00000 eV

Virial components:
Potential Energy   :         -225.82887437 Eh           -6145.11608 eV
Kinetic Energy     :          112.68902040 Eh            3066.42414 eV
Virial Ratio       :            2.00400069


DFT components:
N(Alpha)           :        7.999995665959 electrons
N(Beta)            :        6.999998568216 electrons
N(Total)           :       14.999994234176 electrons
E(X)               :      -10.712652780438 Eh       
E(C)               :       -0.591044976876 Eh       
E(XC)              :      -11.303697757314 Eh       
DFET-embed. en.    :        0.000000000000 Eh       

---------------
SCF CONVERGENCE
---------------

  Last Energy change         ...    1.8511e-10  Tolerance :   1.0000e-08
  Last MAX-Density change    ...    0.0000e+00  Tolerance :   1.0000e-07
  Last RMS-Density change    ...    0.0000e+00  Tolerance :   5.0000e-09
  Last DIIS Error            ...    4.3728e-07  Tolerance :   5.0000e-07

             **** THE GBW FILE WAS UPDATED (co_n.gbw) ****
             **** DENSITY co_n.scfp WAS UPDATED ****
             **** ENERGY FILE WAS UPDATED (co_n.en.tmp) ****
----------------------
UHF SPIN CONTAMINATION
----------------------

Warning: in a DFT calculation there is little theoretical justification to 
         calculate <S**2> as in Hartree-Fock theory. We will do it anyways
         but you should keep in mind that the values have only limited relevance

Expectation value of <S**2>     :     0.754413
Ideal value S*(S+1) for S=0.5   :     0.750000
Deviation                       :     0.004413

             **** THE GBW FILE WAS UPDATED (co_n.gbw) ****
             **** DENSITY co_n.scfp WAS UPDATED ****
----------------
ORBITAL ENERGIES
----------------
                 SPIN UP ORBITALS
  NO   OCC          E(Eh)            E(eV) 
   0   1.0000     -18.832499      -512.4584 
   1   1.0000      -9.955739      -270.9094 
   2   1.0000      -0.647811       -17.6278 
   3   1.0000      -0.238262        -6.4834 
   4   1.0000      -0.055216        -1.5025 
   5   1.0000      -0.036005        -0.9797 
   6   1.0000      -0.034776        -0.9463 
   7   1.0000       0.117899         3.2082 
   8   0.0000       0.207575         5.6484 
   9   0.0000       0.410432        11.1684 
  10   0.0000       0.672465        18.2987 
  11   0.0000       0.687972        18.7207 
  12   0.0000       0.703859        19.1530 
  13   0.0000       0.723454        19.6862 
  14   0.0000       1.078381        29.3442 
  15   0.0000       1.092535        29.7294 
  16   0.0000       1.096296        29.8317 
  17   0.0000       1.564959        42.5847 
  18   0.0000       2.841220        77.3135 
  19   0.0000       2.856334        77.7248 
  20   0.0000       2.977602        81.0247 
  21   0.0000       5.068786       137.9287 
  22   0.0000       5.073262       138.0505 
  23   0.0000       5.141034       139.8947 
  24   0.0000      23.421845       637.3408 
  25   0.0000      50.022297      1361.1759 

                 SPIN DOWN ORBITALS
  NO   OCC          E(Eh)            E(eV) 
   0   1.0000     -18.826762      -512.3023 
   1   1.0000      -9.943007      -270.5630 
   2   1.0000      -0.633235       -17.2312 
   3   1.0000      -0.204130        -5.5547 
   4   1.0000      -0.031176        -0.8483 
   5   1.0000      -0.019310        -0.5255 
   6   1.0000      -0.006466        -0.1759 
   7   0.0000       0.222780         6.0621 
   8   0.0000       0.255364         6.9488 
   9   0.0000       0.424594        11.5538 
  10   0.0000       0.700328        19.0569 
  11   0.0000       0.713892        19.4260 
  12   0.0000       0.727767        19.8035 
  13   0.0000       0.747098        20.3296 
  14   0.0000       1.082199        29.4481 
  15   0.0000       1.096379        29.8340 
  16   0.0000       1.112677        30.2775 
  17   0.0000       1.572043        42.7775 
  18   0.0000       2.869351        78.0790 
  19   0.0000       2.903797        79.0163 
  20   0.0000       2.987326        81.2893 
  21   0.0000       5.074199       138.0760 
  22   0.0000       5.096306       138.6775 
  23   0.0000       5.145040       140.0037 
  24   0.0000      23.435669       637.7170 
  25   0.0000      50.027920      1361.3289 

                    ********************************
                    * MULLIKEN POPULATION ANALYSIS *
                    ********************************

--------------------------------------------
MULLIKEN ATOMIC CHARGES AND SPIN POPULATIONS
--------------------------------------------
   0 C :   -0.330525    0.864470
   1 O :   -0.669475    0.135530
Sum of atomic charges         :   -1.0000000
Sum of atomic spin populations:    1.0000000

-----------------------------------------------------
MULLIKEN REDUCED ORBITAL CHARGES AND SPIN POPULATIONS
-----------------------------------------------------
CHARGE
  0 C s       :     3.888747  s :     3.888747
      pz      :     0.491885  p :     2.441778
      px      :     0.741028
      py      :     1.208865
  1 O s       :     3.957566  s :     3.957566
      pz      :     1.508115  p :     4.711909
      px      :     1.412659
      py      :     1.791135

SPIN
  0 C s       :     0.028870  s :     0.028870
      pz      :     0.039404  p :     0.835600
      px      :    -0.007793
      py      :     0.803989
  1 O s       :    -0.000513  s :    -0.000513
      pz      :    -0.039404  p :     0.136042
      px      :    -0.020564
      py      :     0.196011


                     *******************************
                     * LOEWDIN POPULATION ANALYSIS *
                     *******************************

-------------------------------------------
LOEWDIN ATOMIC CHARGES AND SPIN POPULATIONS
-------------------------------------------
   0 C :   -0.455443    0.832944
   1 O :   -0.544557    0.167056

----------------------------------------------------
LOEWDIN REDUCED ORBITAL CHARGES AND SPIN POPULATIONS
----------------------------------------------------
CHARGE
  0 C s       :     3.768640  s :     3.768640
      pz      :     0.507730  p :     2.686803
      px      :     0.969501
      py      :     1.209572
  1 O s       :     3.787543  s :     3.787543
      pz      :     1.492270  p :     4.757014
      px      :     1.474317
      py      :     1.790428

SPIN
  0 C s       :     0.015814  s :     0.015814
      pz      :     0.037934  p :     0.817129
      px      :    -0.006131
      py      :     0.785326
  1 O s       :     0.003019  s :     0.003019
      pz      :    -0.037934  p :     0.164037
      px      :    -0.012703
      py      :     0.214674


                      *****************************
                      * MAYER POPULATION ANALYSIS *
                      *****************************

  NA   - Mulliken gross atomic population
  ZA   - Total nuclear charge
  QA   - Mulliken gross atomic charge
  VA   - Mayer's total valence
  BVA  - Mayer's bonded valence
  FA   - Mayer's free valence

  ATOM       NA         ZA         QA         VA         BVA        FA
  0 C      6.3305     6.0000    -0.3305     2.4455     1.7861     0.6594
  1 O      8.6695     8.0000    -0.6695     1.8328     1.7861     0.0467

  Mayer bond orders larger than 0.100000
B(  0-C ,  1-O ) :   1.7861 

-------
TIMINGS
-------

Total SCF time: 0 days 0 hours 0 min 1 sec 

Total time                  ....       1.921 sec
Sum of individual times     ....       1.887 sec  ( 98.2%)

Fock matrix formation       ....       1.508 sec  ( 78.5%)
  Split-RI-J                ....       0.068 sec  (  4.5% of F)
  Chain of spheres X        ....       0.757 sec  ( 50.2% of F)
  XC integration            ....       0.676 sec  ( 44.8% of F)
    Basis function eval.    ....       0.170 sec  ( 25.1% of XC)
    Density eval.           ....       0.197 sec  ( 29.1% of XC)
    XC-Functional eval.     ....       0.167 sec  ( 24.7% of XC)
    XC-Potential eval.      ....       0.097 sec  ( 14.4% of XC)
Diagonalization             ....       0.002 sec  (  0.1%)
Density matrix formation    ....       0.000 sec  (  0.0%)
Population analysis         ....       0.001 sec  (  0.1%)
Initial guess               ....       0.004 sec  (  0.2%)
Orbital Transformation      ....       0.000 sec  (  0.0%)
Orbital Orthonormalization  ....       0.000 sec  (  0.0%)
DIIS solution               ....       0.013 sec  (  0.7%)
Grid generation             ....       0.357 sec  ( 18.6%)

Maximum memory used throughout the entire SCF-calculation: 41.7 MB


-------------------------------------------------------------------------------
                          DFT DISPERSION CORRECTION                            
                                                                               
                              DFTD3 V3.1  Rev 1                                
                          USING Becke-Johnson damping                          
-------------------------------------------------------------------------------
The B3LYP functional is recognized
Active option DFTDOPT                   ...         4   

molecular C6(AA) [au] = 100.990603 


            DFT-D V3
 parameters
 s6 scaling factor         :     1.0000 
 a1 scaling factor         :     0.3981 
 s8 scaling factor         :     1.9889 
 a2 scaling factor         :     4.4211 
 ad hoc parameters k1-k3   :    16.0000     1.3333    -4.0000 

 Edisp/kcal,au: -0.455779278613  -0.000726330436 
 E6   /kcal   :  -0.208255859 
 E8   /kcal   :  -0.247523419 
 % E8         :  54.307738579 

-------------------------   ----------------
Dispersion correction           -0.000726330
-------------------------   ----------------


-------------------------   --------------------
FINAL SINGLE POINT ENERGY      -113.140580295914
-------------------------   --------------------

------------------------------------------------------------------------------
                         ORCA SCF GRADIENT CALCULATION
------------------------------------------------------------------------------

 ... reading COSX grid (gridx3)
Gradient of the Kohn-Sham DFT energy:
Kohn-Sham wavefunction type      ... UKS
Hartree-Fock exchange scaling    ...    0.200
Number of operators              ...    2
Number of atoms                  ...    2
Basis set dimensions             ...   26
Integral neglect threshold       ... 2.5e-11
Integral primitive cutoff        ... 2.5e-12
SHARK Integral package           ... ON

Nuc. rep. gradient       (SHARK) ... done (  0.0 sec)
HCore & Overlap gradient (SHARK) ... done (  0.0 sec)
RI-J gradient            (SHARK) ... done (  0.0 sec)
COSX-gradient                    ... done (  0.1 sec)
Exchange-correlation gradient    ... done
Dispersion correction            ... done

------------------
CARTESIAN GRADIENT
------------------

   1   C   :   -0.133315897    0.000000001    0.000000001
   2   O   :    0.133308846    0.000000000   -0.000000003

Difference to translation invariance:
           :   -0.0000070504    0.0000000012   -0.0000000027

Difference to rotation invariance:
           :    0.0000000000    0.0000000098    0.0000000006

Norm of the cartesian gradient     ...    0.1885321640
RMS gradient                       ...    0.0769679337
MAX gradient                       ...    0.1333158968

-------
TIMINGS
-------

Total SCF gradient time            ...        0.324 sec

One electron gradient       ....       0.001 sec  (  0.2%)
RI-J Coulomb gradient       ....       0.015 sec  (  4.6%)
COSX gradient               ....       0.117 sec  ( 36.1%)
XC gradient                 ....       0.141 sec  ( 43.4%)

Maximum memory used throughout the entire SCFGRAD-calculation: 31.8 MB
------------------------------------------------------------------------------
                         ORCA GEOMETRY RELAXATION STEP
------------------------------------------------------------------------------

Reading the OPT-File                    .... done
Getting information on internals        .... done
Copying old internal coords+grads       .... done
Making the new internal coordinates     .... (new redundants).... done
Validating the new internal coordinates .... (new redundants).... done
Calculating the B-matrix                .... done
Calculating the G,G- and P matrices     .... done
Transforming gradient to internals      .... done
Projecting the internal gradient        .... done
Number of atoms                         ....   2
Number of internal coordinates          ....   1
Current Energy                          ....  -113.140580296 Eh
Current gradient norm                   ....     0.188532164 Eh/bohr
Maximum allowed component of the step   ....  0.300
Current trust radius                    ....  0.300
Evaluating the initial hessian          ....  (Almloef) done
Projecting the Hessian                  .... done
Forming the augmented Hessian           .... done
Diagonalizing the augmented Hessian     .... done
Last element of RFO vector              ....  0.952353480
Lowest eigenvalues of augmented Hessian:
 -0.042694025
Length of the computed step             ....  0.320255537
Warning: the length of the step is outside the trust region - taking restricted step instead
The input lambda is                     ....    -0.042694
   iter:   1  x=   -0.068190  g=    0.492776 f(x)=     0.012564
   iter:   2  x=   -0.070777  g=    0.412286 f(x)=     0.001067
   iter:   3  x=   -0.070800  g=    0.405126 f(x)=     0.000009
   iter:   4  x=   -0.070800  g=    0.405064 f(x)=     0.000000
   iter:   5  x=   -0.070800  g=    0.405064 f(x)=     0.000000
The output lambda is                    ....    -0.070800 (5 iterations)
The final length of the internal step   ....  0.300000000
Converting the step to cartesian space:
 Initial RMS(Int)=    0.3000000000
Transforming coordinates:
 Iter   0:  RMS(Cart)=    0.0866025404 RMS(Int)=    0.3000000000
 Iter   1:  RMS(Cart)=    0.0000000000 RMS(Int)=    0.0000000000
done
Storing new coordinates                 .... done

                                .--------------------.
          ----------------------|Geometry convergence|-------------------------
          Item                value                   Tolerance       Converged
          ---------------------------------------------------------------------
          RMS gradient        0.1333123716            0.0001000000      NO
          MAX gradient        0.1333123716            0.0003000000      NO
          RMS step            0.3000000000            0.0020000000      NO
          MAX step            0.3000000000            0.0040000000      NO
          ........................................................
          Max(Bonds)      0.1588      Max(Angles)    0.00
          Max(Dihed)        0.00      Max(Improp)    0.00
          ---------------------------------------------------------------------

The optimization has not yet converged - more geometry cycles are needed


    ---------------------------------------------------------------------------
                         Redundant Internal Coordinates
                            (Angstroem and degrees)

        Definition                    Value    dE/dq     Step     New-Value
    ----------------------------------------------------------------------------
     1. B(O   1,C   0)                1.5000  0.133312 -0.1588    1.3412   
    ----------------------------------------------------------------------------

         *************************************************************
         *                GEOMETRY OPTIMIZATION CYCLE   2            *
         *************************************************************
---------------------------------
CARTESIAN COORDINATES (ANGSTROEM)
---------------------------------
  C      0.079377    0.000000    0.000000
  O      1.420623    0.000000    0.000000

----------------------------
CARTESIAN COORDINATES (A.U.)
----------------------------
  NO LB      ZA    FRAG     MASS         X           Y           Z
   0 C     6.0000    0    12.011    0.150000    0.000000    0.000000
   1 O     8.0000    0    15.999    2.684589    0.000000    0.000000

--------------------------------
INTERNAL COORDINATES (ANGSTROEM)
--------------------------------
 C      0   0   0     0.000000000000     0.00000000     0.00000000
 O      1   0   0     1.341246837510     0.00000000     0.00000000

---------------------------
INTERNAL COORDINATES (A.U.)
---------------------------
 C      0   0   0     0.000000000000     0.00000000     0.00000000
 O      1   0   0     2.534589200882     0.00000000     0.00000000

------------------------------------------------------------------------------
                   ___                                                        
                  /   \      - P O W E R E D   B Y -                         
                 /     \                                                     
                 |  |  |   _    _      __       _____    __    __             
                 |  |  |  | |  | |    /  \     |  _  \  |  |  /  |          
                  \  \/   | |  | |   /    \    | | | |  |  | /  /          
                 / \  \   | |__| |  /  /\  \   | |_| |  |  |/  /          
                |  |  |   |  __  | /  /__\  \  |    /   |      \           
                |  |  |   | |  | | |   __   |  |    \   |  |\   \          
                \     /   | |  | | |  |  |  |  | |\  \  |  | \   \       
                 \___/    |_|  |_| |__|  |__|  |_| \__\ |__|  \__/        
                                                                              
                      - O R C A' S   B I G   F R I E N D -                    
                                      &                                       
                       - I N T E G R A L  F E E D E R -                       
                                                                              
 v1 FN, 2020, v2 2021                                                         
------------------------------------------------------------------------------


Reading SHARK input file co_n.SHARKINP.tmp ... ok
----------------------
SHARK INTEGRAL PACKAGE
----------------------

Number of atoms                             ...      2
Number of basis functions                   ...     26
Number of shells                            ...     14
Maximum angular momentum                    ...      1
Integral batch strategy                     ... SHARK/LIBINT Hybrid
RI-J (if used) integral strategy            ... SPLIT-RIJ (Revised 2003 algorithm where possible)
Printlevel                                  ...      1
Contraction scheme used                     ... SEGMENTED contraction
Coulomb Range Separation                    ... NOT USED
Exchange Range Separation                   ... NOT USED
Finite Nucleus Model                        ... NOT USED
Auxiliary Coulomb fitting basis             ... AVAILABLE
   # of basis functions in Aux-J            ...    180
   # of shells in Aux-J                     ...     68
   Maximum angular momentum in Aux-J        ...      2
Auxiliary J/K fitting basis                 ... AVAILABLE
   # of basis functions in Aux-JK           ...    180
   # of shells in Aux-JK                    ...     68
   Maximum angular momentum in Aux-JK       ...      2
Auxiliary Correlation fitting basis         ... AVAILABLE
   # of basis functions in Aux-C            ...    180
   # of shells in Aux-C                     ...     68
   Maximum angular momentum in Aux-C        ...      2
Auxiliary 'external' fitting basis          ... NOT available
Integral threshold                          ...     2.500000e-11
Primitive cut-off                           ...     2.500000e-12
Primitive pair pre-selection threshold      ...     2.500000e-12

Calculating pre-screening integrals         ... done (  0.0 sec) Dimension = 14
Organizing shell pair data                  ... done (  0.0 sec)
Shell pair information
Total number of shell pairs                 ...       105
Shell pairs after pre-screening             ...       105
Total number of primitive shell pairs       ...       570
Primitive shell pairs kept                  ...       504
          la=0 lb=0:     36 shell pairs
          la=1 lb=0:     48 shell pairs
          la=1 lb=1:     21 shell pairs

Calculating one electron integrals          ... done (  0.0 sec)
Calculating RI/J V-Matrix + Cholesky decomp.... done (  0.0 sec)
Calculating RI/JK V-Matrix + Cholesky decomp... done (  0.0 sec)
Calculating RI/C V-Matrix + Cholesky decomp.... done (  0.0 sec)
Calculating Nuclear repulsion               ... done (  0.0 sec) ENN=     18.937980159980 Eh

SHARK setup successfully completed in   0.0 seconds

Maximum memory used throughout the entire GTOINT-calculation: 6.1 MB

Diagonalization of the overlap matrix:
Smallest eigenvalue                        ... 3.350e-02
Time for diagonalization                   ...    0.000 sec
Threshold for overlap eigenvalues          ... 1.000e-08
Number of eigenvalues below threshold      ... 0
Time for construction of square roots      ...    0.000 sec
Total time needed                          ...    0.000 sec

-------------------
DFT GRID GENERATION
-------------------

General Integration Accuracy     IntAcc      ... 4.959
Radial Grid Type                 RadialGrid  ... OptM3 with GC (2021)
Angular Grid (max. ang.)         AngularGrid ... 6 (Lebedev-590)
Angular grid pruning method      GridPruning ... 4 (adaptive)
Weight generation scheme         WeightScheme... Becke
Basis function cutoff            BFCut       ... 1.0000e-11
Integration weight cutoff        WCut        ... 1.0000e-14
Angular grids for H and He will be reduced by one unit
Partially contracted basis set               ... off
Rotationally invariant grid construction     ... off

Total number of grid points                  ...    29099
Total number of batches                      ...      456
Average number of points per batch           ...       63
Average number of grid points per atom       ...    14550
Time for grid setup =    0.249 sec

--------------------
COSX GRID GENERATION
--------------------

GRIDX 1
-------
General Integration Accuracy     IntAcc      ... 4.020
Radial Grid Type                 RadialGrid  ... OptM3 with GC (2021)
Angular Grid (max. ang.)         AngularGrid ... 2 (Lebedev-110)
Angular grid pruning method      GridPruning ... 4 (adaptive)
Weight generation scheme         WeightScheme... Becke
Basis function cutoff            BFCut       ... 1.0000e-11
Integration weight cutoff        WCut        ... 1.0000e-14
Angular grids for H and He will be reduced by one unit
Partially contracted basis set               ... on
Rotationally invariant grid construction     ... off

Total number of grid points                  ...     3763
Total number of batches                      ...       60
Average number of points per batch           ...       62
Average number of grid points per atom       ...     1882
UseSFitting                                  ... on

GRIDX 2
-------
General Integration Accuracy     IntAcc      ... 4.338
Radial Grid Type                 RadialGrid  ... OptM3 with GC (2021)
Angular Grid (max. ang.)         AngularGrid ... 3 (Lebedev-194)
Angular grid pruning method      GridPruning ... 4 (adaptive)
Weight generation scheme         WeightScheme... Becke
Basis function cutoff            BFCut       ... 1.0000e-11
Integration weight cutoff        WCut        ... 1.0000e-14
Angular grids for H and He will be reduced by one unit
Partially contracted basis set               ... on
Rotationally invariant grid construction     ... off

Total number of grid points                  ...     8423
Total number of batches                      ...      132
Average number of points per batch           ...       63
Average number of grid points per atom       ...     4212
UseSFitting                                  ... on

GRIDX 3
-------
General Integration Accuracy     IntAcc      ... 4.871
Radial Grid Type                 RadialGrid  ... OptM3 with GC (2021)
Angular Grid (max. ang.)         AngularGrid ... 4 (Lebedev-302)
Angular grid pruning method      GridPruning ... 4 (adaptive)
Weight generation scheme         WeightScheme... Becke
Basis function cutoff            BFCut       ... 1.0000e-11
Integration weight cutoff        WCut        ... 1.0000e-14
Angular grids for H and He will be reduced by one unit
Partially contracted basis set               ... on
Rotationally invariant grid construction     ... off

Total number of grid points                  ...    14953
Total number of batches                      ...      235
Average number of points per batch           ...       63
Average number of grid points per atom       ...     7476
UseSFitting                                  ... on

Time for X-Grid setup             =    0.101 sec

--------------
SCF ITERATIONS
--------------
ITER       Energy         Delta-E        Max-DP      RMS-DP      [F,P]     Damp
               ***  Starting incremental Fock matrix formation  ***
  0   -113.1628397821   0.000000000000 0.01017529  0.00084749  0.0376718 0.7000
  1   -113.1656864545  -0.002846672403 0.00998363  0.00079251  0.0237674 0.7000
                               ***Turning on DIIS***
  2   -113.1676959922  -0.002009537663 0.02753583  0.00211845  0.0173851 0.0000
  3   -113.1726862806  -0.004990288443 0.00948347  0.00052481  0.0039918 0.0000
  4   -113.1727595189  -0.000073238229 0.00184405  0.00013304  0.0019083 0.0000
  5   -113.1727770972  -0.000017578347 0.00085892  0.00005785  0.0010154 0.0000
  6   -113.1727828413  -0.000005744145 0.00118580  0.00007258  0.0005069 0.0000
               *** Restarting incremental Fock matrix formation ***
                                   *** Resetting DIIS ***
  7   -113.1727864240  -0.000003582636 0.00019244  0.00001887  0.0002257 0.0000
  8   -113.1727869006  -0.000000476650 0.00010232  0.00001019  0.0002915 0.0000
  9   -113.1727870899  -0.000000189284 0.00016999  0.00001818  0.0001741 0.0000
 10   -113.1727873430  -0.000000253036 0.00007152  0.00000555  0.0000413 0.0000
 11   -113.1727873551  -0.000000012189 0.00002423  0.00000160  0.0000181 0.0000
 12   -113.1727873570  -0.000000001810 0.00000172  0.00000018  0.0000020 0.0000
                 **** Energy Check signals convergence ****

               *****************************************************
               *                     SUCCESS                       *
               *           SCF CONVERGED AFTER  13 CYCLES          *
               *****************************************************

Old exchange energy                            =     -2.694944289 Eh
New exchange energy                            =     -2.694944756 Eh
Exchange energy change after final integration =     -0.000000467 Eh
Total energy after final integration           =   -113.172787824 Eh
Final COS-X integration done in                =     0.089 sec
Total Energy       :         -113.17278782 Eh           -3079.58812 eV
  Last Energy change         ...   -2.7816e-10  Tolerance :   1.0000e-08
  Last MAX-Density change    ...    0.0000e+00  Tolerance :   1.0000e-07
             **** THE GBW FILE WAS UPDATED (co_n.gbw) ****
             **** DENSITY co_n.scfp WAS UPDATED ****
             **** ENERGY FILE WAS UPDATED (co_n.en.tmp) ****
----------------------
UHF SPIN CONTAMINATION
----------------------

Warning: in a DFT calculation there is little theoretical justification to 
         calculate <S**2> as in Hartree-Fock theory. We will do it anyways
         but you should keep in mind that the values have only limited relevance

Expectation value of <S**2>     :     0.752471
Ideal value S*(S+1) for S=0.5   :     0.750000
Deviation                       :     0.002471

             **** THE GBW FILE WAS UPDATED (co_n.gbw) ****
             **** DENSITY co_n.scfp WAS UPDATED ****
Total SCF time: 0 days 0 hours 0 min 1 sec 

Maximum memory used throughout the entire SCF-calculation: 41.7 MB


-------------------------------------------------------------------------------
                          DFT DISPERSION CORRECTION                            
                                                                               
                              DFTD3 V3.1  Rev 1                                
                          USING Becke-Johnson damping                          
-------------------------------------------------------------------------------
-------------------------   ----------------
Dispersion correction           -0.000726849
-------------------------   ----------------


-------------------------   --------------------
FINAL SINGLE POINT ENERGY      -113.173514673542
-------------------------   --------------------

------------------------------------------------------------------------------
                         ORCA SCF GRADIENT CALCULATION
------------------------------------------------------------------------------

 ... reading COSX grid (gridx3)
Gradient of the Kohn-Sham DFT energy:
Kohn-Sham wavefunction type      ... UKS
Hartree-Fock exchange scaling    ...    0.200
Number of operators              ...    2
Number of atoms                  ...    2
Basis set dimensions             ...   26
Integral neglect threshold       ... 2.5e-11
Integral primitive cutoff        ... 2.5e-12
SHARK Integral package           ... ON

Nuc. rep. gradient       (SHARK) ... done (  0.0 sec)
HCore & Overlap gradient (SHARK) ... done (  0.0 sec)
RI-J gradient            (SHARK) ... done (  0.0 sec)
COSX-gradient                    ... done (  0.1 sec)
Exchange-correlation gradient    ... done
Dispersion correction            ... done

------------------
CARTESIAN GRADIENT
------------------

   1   C   :   -0.073339805    0.000000001   -0.000000000
   2   O   :    0.073342025   -0.000000007   -0.000000000

Difference to translation invariance:
           :    0.0000022196   -0.0000000067   -0.0000000002

Difference to rotation invariance:
           :    0.0000000000    0.0000000003   -0.0000000194

Norm of the cartesian gradient     ...    0.1037197167
RMS gradient                       ...    0.0423433970
MAX gradient                       ...    0.0733420248

-------
TIMINGS
-------

Total SCF gradient time            ...        0.336 sec

One electron gradient       ....       0.001 sec  (  0.2%)
RI-J Coulomb gradient       ....       0.016 sec  (  4.6%)
COSX gradient               ....       0.119 sec  ( 35.3%)
XC gradient                 ....       0.145 sec  ( 43.0%)

Maximum memory used throughout the entire SCFGRAD-calculation: 31.8 MB
------------------------------------------------------------------------------
                         ORCA GEOMETRY RELAXATION STEP
------------------------------------------------------------------------------

Reading the OPT-File                    .... done
Getting information on internals        .... done
Copying old internal coords+grads       .... done
Making the new internal coordinates     .... (new redundants).... done
Validating the new internal coordinates .... (new redundants).... done
Calculating the B-matrix                .... done
Calculating the G,G- and P matrices     .... done
Transforming gradient to internals      .... done
Projecting the internal gradient        .... done
Number of atoms                         ....   2
Number of internal coordinates          ....   1
Current Energy                          ....  -113.173514674 Eh
Current gradient norm                   ....     0.103719717 Eh/bohr
Maximum allowed component of the step   ....  0.300
Current trust radius                    ....  0.300
Updating the Hessian (BFGS)             .... done
Forming the augmented Hessian           .... done
Diagonalizing the augmented Hessian     .... done
Last element of RFO vector              ....  0.950326682
Lowest eigenvalues of augmented Hessian:
 -0.024020866
Length of the computed step             ....  0.327523406
Warning: the length of the step is outside the trust region - taking restricted step instead
The input lambda is                     ....    -0.024021
   iter:   1  x=   -0.042048  g=    0.958100 f(x)=     0.017272
   iter:   2  x=   -0.044526  g=    0.759507 f(x)=     0.001882
   iter:   3  x=   -0.044565  g=    0.736638 f(x)=     0.000029
   iter:   4  x=   -0.044565  g=    0.736288 f(x)=     0.000000
   iter:   5  x=   -0.044565  g=    0.736288 f(x)=     0.000000
The output lambda is                    ....    -0.044565 (5 iterations)
The final length of the internal step   ....  0.300000000
Converting the step to cartesian space:
 Initial RMS(Int)=    0.3000000000
Transforming coordinates:
 Iter   0:  RMS(Cart)=    0.0866025404 RMS(Int)=    0.3000000000
 Iter   1:  RMS(Cart)=    0.0000000000 RMS(Int)=    0.0000000000
done
Storing new coordinates                 .... done

                                .--------------------.
          ----------------------|Geometry convergence|-------------------------
          Item                value                   Tolerance       Converged
          ---------------------------------------------------------------------
          Energy change      -0.0329343776            0.0000050000      NO
          RMS gradient        0.0733409150            0.0001000000      NO
          MAX gradient        0.0733409150            0.0003000000      NO
          RMS step            0.3000000000            0.0020000000      NO
          MAX step            0.3000000000            0.0040000000      NO
          ........................................................
          Max(Bonds)      0.1588      Max(Angles)    0.00
          Max(Dihed)        0.00      Max(Improp)    0.00
          ---------------------------------------------------------------------

The optimization has not yet converged - more geometry cycles are needed


    ---------------------------------------------------------------------------
                         Redundant Internal Coordinates
                            (Angstroem and degrees)

        Definition                    Value    dE/dq     Step     New-Value
    ----------------------------------------------------------------------------
     1. B(O   1,C   0)                1.3412  0.073341 -0.1588    1.1825   
    ----------------------------------------------------------------------------

         *************************************************************
         *                GEOMETRY OPTIMIZATION CYCLE   3            *
         *************************************************************
---------------------------------
CARTESIAN COORDINATES (ANGSTROEM)
---------------------------------
  C      0.158753    0.000000    0.000000
  O      1.341247    0.000000    0.000000

----------------------------
CARTESIAN COORDINATES (A.U.)
----------------------------
  NO LB      ZA    FRAG     MASS         X           Y           Z
   0 C     6.0000    0    12.011    0.300000    0.000000    0.000000
   1 O     8.0000    0    15.999    2.534589    0.000000    0.000000

--------------------------------
INTERNAL COORDINATES (ANGSTROEM)
--------------------------------
 C      0   0   0     0.000000000000     0.00000000     0.00000000
 O      1   0   0     1.182493675020     0.00000000     0.00000000

[...]
  19   0.0000       2.885101        78.5076 
  20   0.0000       3.041320        82.7585 
  21   0.0000       5.067517       137.8941 
  22   0.0000       5.072436       138.0280 
  23   0.0000       5.145490       140.0159 
  24   0.0000      23.532968       640.3646 
  25   0.0000      50.062863      1362.2798 

                 SPIN DOWN ORBITALS
  NO   OCC          E(Eh)            E(eV) 
   0   1.0000     -18.828841      -512.3588 
   1   1.0000      -9.898642      -269.3557 
   2   1.0000      -0.732897       -19.9431 
   3   1.0000      -0.198519        -5.4020 
   4   1.0000      -0.079663        -2.1677 
   5   1.0000      -0.052199        -1.4204 
   6   1.0000      -0.011233        -0.3057 
   7   0.0000       0.278336         7.5739 
   8   0.0000       0.308862         8.4046 
   9   0.0000       0.493220        13.4212 
  10   0.0000       0.701641        19.0926 
  11   0.0000       0.728570        19.8254 
  12   0.0000       0.755543        20.5594 
  13   0.0000       0.889168        24.1955 
  14   0.0000       1.054446        28.6929 
  15   0.0000       1.103622        30.0311 
  16   0.0000       1.121006        30.5041 
  17   0.0000       1.623263        44.1712 
  18   0.0000       2.895414        78.7882 
  19   0.0000       2.928323        79.6837 
  20   0.0000       3.050246        83.0014 
  21   0.0000       5.077570       138.1677 
  22   0.0000       5.101198       138.8106 
  23   0.0000       5.152260       140.2001 
  24   0.0000      23.544876       640.6887 
  25   0.0000      50.070653      1362.4917 

                    ********************************
                    * MULLIKEN POPULATION ANALYSIS *
                    ********************************

--------------------------------------------
MULLIKEN ATOMIC CHARGES AND SPIN POPULATIONS
--------------------------------------------
   0 C :   -0.451704    0.812354
   1 O :   -0.548296    0.187646
Sum of atomic charges         :   -1.0000000
Sum of atomic spin populations:    1.0000000

-----------------------------------------------------
MULLIKEN REDUCED ORBITAL CHARGES AND SPIN POPULATIONS
-----------------------------------------------------
CHARGE
  0 C s       :     3.907378  s :     3.907378
      pz      :     0.512687  p :     2.544326
      px      :     0.782448
      py      :     1.249191
  1 O s       :     3.883480  s :     3.883480
      pz      :     1.487313  p :     4.664816
      px      :     1.426694
      py      :     1.750809

SPIN
  0 C s       :     0.034793  s :     0.034793
      pz      :     0.013739  p :     0.777562
      px      :    -0.018839
      py      :     0.782662
  1 O s       :    -0.000240  s :    -0.000240
      pz      :    -0.013739  p :     0.187886
      px      :    -0.015713
      py      :     0.217338


                     *******************************
                     * LOEWDIN POPULATION ANALYSIS *
                     *******************************

-------------------------------------------
LOEWDIN ATOMIC CHARGES AND SPIN POPULATIONS
-------------------------------------------
   0 C :   -0.561822    0.758709
   1 O :   -0.438178    0.241291

----------------------------------------------------
LOEWDIN REDUCED ORBITAL CHARGES AND SPIN POPULATIONS
----------------------------------------------------
CHARGE
  0 C s       :     3.665842  s :     3.665842
      pz      :     0.542524  p :     2.895981
      px      :     1.108646
      py      :     1.244811
  1 O s       :     3.665146  s :     3.665146
      pz      :     1.457476  p :     4.773031
      px      :     1.560366
      py      :     1.755189

SPIN
  0 C s       :     0.014181  s :     0.014181
      pz      :     0.012506  p :     0.744528
      px      :    -0.012298
      py      :     0.744320
  1 O s       :     0.004261  s :     0.004261
      pz      :    -0.012506  p :     0.237029
      px      :    -0.006144
      py      :     0.255680


                      *****************************
                      * MAYER POPULATION ANALYSIS *
                      *****************************

  NA   - Mulliken gross atomic population
  ZA   - Total nuclear charge
  QA   - Mulliken gross atomic charge
  VA   - Mayer's total valence
  BVA  - Mayer's bonded valence
  FA   - Mayer's free valence

  ATOM       NA         ZA         QA         VA         BVA        FA
  0 C      6.4517     6.0000    -0.4517     2.3786     1.7612     0.6175
  1 O      8.5483     8.0000    -0.5483     1.8183     1.7612     0.0571

  Mayer bond orders larger than 0.100000
B(  0-C ,  1-O ) :   1.7612 

-------
TIMINGS
-------

Total SCF time: 0 days 0 hours 0 min 1 sec 

Total time                  ....       1.163 sec
Sum of individual times     ....       1.136 sec  ( 97.7%)

Fock matrix formation       ....       0.777 sec  ( 66.8%)
  Split-RI-J                ....       0.054 sec  (  6.9% of F)
  Chain of spheres X        ....       0.437 sec  ( 56.2% of F)
  XC integration            ....       0.284 sec  ( 36.5% of F)
    Basis function eval.    ....       0.071 sec  ( 25.1% of XC)
    Density eval.           ....       0.087 sec  ( 30.7% of XC)
    XC-Functional eval.     ....       0.067 sec  ( 23.8% of XC)
    XC-Potential eval.      ....       0.036 sec  ( 12.8% of XC)
Diagonalization             ....       0.001 sec  (  0.1%)
Density matrix formation    ....       0.000 sec  (  0.0%)
Population analysis         ....       0.003 sec  (  0.2%)
Initial guess               ....       0.000 sec  (  0.0%)
Orbital Transformation      ....       0.000 sec  (  0.0%)
Orbital Orthonormalization  ....       0.000 sec  (  0.0%)
DIIS solution               ....       0.003 sec  (  0.3%)
Grid generation             ....       0.352 sec  ( 30.3%)

Maximum memory used throughout the entire SCF-calculation: 41.7 MB


-------------------------------------------------------------------------------
                          DFT DISPERSION CORRECTION                            
                                                                               
                              DFTD3 V3.1  Rev 1                                
                          USING Becke-Johnson damping                          
-------------------------------------------------------------------------------
The B3LYP functional is recognized
Active option DFTDOPT                   ...         4   

molecular C6(AA) [au] = 100.825795 


            DFT-D V3
 parameters
 s6 scaling factor         :     1.0000 
 a1 scaling factor         :     0.3981 
 s8 scaling factor         :     1.9889 
 a2 scaling factor         :     4.4211 
 ad hoc parameters k1-k3   :    16.0000     1.3333    -4.0000 

 Edisp/kcal,au: -0.456364845467  -0.000727263596 
 E6   /kcal   :  -0.208957810 
 E8   /kcal   :  -0.247407035 
 % E8         :  54.212553274 

-------------------------   ----------------
Dispersion correction           -0.000727264
-------------------------   ----------------


-------------------------   --------------------
FINAL SINGLE POINT ENERGY      -113.179713529905
-------------------------   --------------------

                                *** OPTIMIZATION RUN DONE ***

                            ***************************************
                            *     ORCA property calculations      *
                            ***************************************

                                    ---------------------
                                    Active property flags
                                    ---------------------
   (+) Dipole Moment


------------------------------------------------------------------------------
                       ORCA ELECTRIC PROPERTIES CALCULATION
------------------------------------------------------------------------------

Dipole Moment Calculation                       ... on
Quadrupole Moment Calculation                   ... off
Polarizability Calculation                      ... off
GBWName                                         ... co_n.gbw
Electron density                                ... co_n.scfp
The origin for moment calculation is the CENTER OF MASS  = ( 1.586730,  0.000000  0.000000)

-------------
DIPOLE MOMENT
-------------
                                X             Y             Z
Electronic contribution:      0.60469       0.00000      -0.00000
Nuclear contribution   :      0.00799       0.00000       0.00000
                        -----------------------------------------
Total Dipole Moment    :      0.61267       0.00000      -0.00000
                        -----------------------------------------
Magnitude (a.u.)       :      0.61267
Magnitude (Debye)      :      1.55729



--------------------
Rotational spectrum 
--------------------
 
Rotational constants in cm-1:     0.000000     1.549000     1.549000 
Rotational constants in MHz :     0.000000 46437.850187 46437.850187 

 Dipole components along the rotational axes: 
x,y,z [a.u.] :     0.612674     0.000000    -0.000000 
x,y,z [Debye]:     1.557293     0.000000    -0.000000 

 

-------------------------------------------------------------------------------
                               ORCA SCF HESSIAN
-------------------------------------------------------------------------------

                   --------- SHARK INITIALIZATION DONE ---------

Hessian of the Kohn-Sham DFT energy:
Kohn-Sham wavefunction type                      ... UKS
Hartree-Fock exchange scaling                    ...    0.200
Number of operators                              ...    2
Number of atoms                                  ...    2
Basis set dimensions                             ...   26
Integral neglect threshold                       ... 2.5e-11
Integral primitive cutoff                        ... 2.5e-12

Setting up DFT Hessian calculations              ... 

HESS GRID
---------

General Integration Accuracy     IntAcc      ... 4.959
Radial Grid Type                 RadialGrid  ... OptM3 with GC (2021)
Angular Grid (max. ang.)         AngularGrid ... 7 (Lebedev-770)
Angular grid pruning method      GridPruning ... 4 (adaptive)
Weight generation scheme         WeightScheme... Becke
Basis function cutoff            BFCut       ... 1.0000e-11
Integration weight cutoff        WCut        ... 1.0000e-14
Angular grids for H and He will be reduced by one unit
Partially contracted basis set               ... off
Rotationally invariant grid construction     ... off

Total number of grid points                  ...    41010
Total number of batches                      ...      642
Average number of points per batch           ...       63
Average number of grid points per atom       ...    20505

Building densities                               ... done   (      0.0 sec)
Calculating rho(r) on the grid                   ... done   (      0.0 sec)
Building xc-kernel on the grid                   ... done   (      0.0 sec)
                                                     done   (      0.6 sec)

Nuclear repulsion Hessian  (SHARK)               ... done   (      0.0 sec)

----------------------------------------------
Forming right-hand sides of CP-SCF equations     ...
----------------------------------------------
One electron integral derivatives  (SHARK)       ... done   (      0.0 sec)
Transforming the overlap derivative matrices     ... done   (      0.0 sec)
Making the Q(x) pseudodensities                  ... done   (      0.0 sec)
Adding the E*S(x)*S(y) terms to the Hessian      ... done   (      0.0 sec)
Calculating energy weighted overlap derivatives  ... done   (      0.0 sec)
Two electron integral derivatives (SHARK-RI)     ... done   (      0.0 sec)
Exchange-correlation integral derivatives        ... done   (      0.8 sec)
tr(F(y)Q(x)) contribution to the Hessian         ... done   (      0.0 sec)
Response fock operator R(S(x)) (SHARK-RIJCOSX)   ... done   (      0.2 sec)
XC Response fock operator R(S(x))                ... done   (      0.2 sec)
tr(F(y)S(x)) contribution to the Hessian         ... done   (      0.0 sec)
Transforming and finalizing RHSs                 ... done   (      0.0 sec)

----------------------------------------------
Solving the CP-SCF equations (RIJCOSX)           ...
----------------------------------------------
     CP-SCF ITERATION   0:   5.4506e-01 (   0.1 sec   0/  6 done)
     CP-SCF ITERATION   1:   8.3179e-02 (   0.1 sec   0/  6 done)
     CP-SCF ITERATION   2:   1.2760e-02 (   0.1 sec   0/  6 done)
     CP-SCF ITERATION   3:   3.1601e-03 (   0.1 sec   2/  6 done)
     CP-SCF ITERATION   4:   1.1032e-03 (   0.1 sec   4/  6 done)
     CP-SCF ITERATION   5:   2.4542e-04 (   0.1 sec   4/  6 done)
     CP-SCF ITERATION   6:   3.8995e-05 (   0.1 sec   6/  6 done)
                    *** THE CP-SCF HAS CONVERGED ***

                                                 ... done   (      0.6 sec)
Forming perturbed density Hessian contributions  ... done   (      0.0 sec)
2nd integral derivative contribs (SHARK-RI)      ... done   (      0.1 sec)
Exchange-correlation Hessian                     ... done   (      1.1 sec)
Dispersion correction in the Hessian             ... done   (      0.2 sec)
Dipole derivatives                               ... (center of mass:  1.586730,  0.000000  0.000000)done   (      0.0 sec)

Total SCF Hessian time: 0 days 0 hours 0 min 3 sec 

Writing the Hessian file to the disk             ... done


Maximum memory used throughout the entire SCFHESS-calculation: 49.0 MB

-----------------------
VIBRATIONAL FREQUENCIES
-----------------------

Scaling factor for frequencies =  1.000000000  (already applied!)

   0:         0.00 cm**-1
   1:         0.00 cm**-1
   2:         0.00 cm**-1
   3:         0.00 cm**-1
   4:         0.00 cm**-1
   5:      1543.92 cm**-1


------------
NORMAL MODES
------------

These modes are the Cartesian displacements weighted by the diagonal matrix
M(i,i)=1/sqrt(m[i]) where m[i] is the mass of the displaced atom
Thus, these vectors are normalized but *not* orthogonal

                  0          1          2          3          4          5    
      0       0.000000   0.000000   0.000000   0.000000   0.000000  -0.799718
      1       0.000000   0.000000   0.000000   0.000000   0.000000   0.000000
      2       0.000000   0.000000   0.000000   0.000000   0.000000   0.000000
      3       0.000000   0.000000   0.000000   0.000000   0.000000   0.600376
      4       0.000000   0.000000   0.000000   0.000000   0.000000   0.000000
      5       0.000000   0.000000   0.000000   0.000000   0.000000   0.000000


-----------
IR SPECTRUM
-----------

 Mode   freq       eps      Int      T**2         TX        TY        TZ
       cm**-1   L/(mol*cm) km/mol    a.u.
----------------------------------------------------------------------------
  5:   1543.92   0.013415   67.80  0.002712  (-0.052073 -0.000000  0.000000)

* The epsilon (eps) is given for a Dirac delta lineshape.
** The dipole moment derivative (T) already includes vibrational overlap.

The first frequency considered to be a vibration is 5
The total number of vibrations considered is 1


--------------------------
THERMOCHEMISTRY AT 298.15K
--------------------------

Temperature         ... 298.15 K
Pressure            ... 1.00 atm
Total Mass          ... 28.01 AMU
The molecule is recognized as being linear

Throughout the following assumptions are being made:
  (1) The electronic state is orbitally nondegenerate
      but the spin degeneracy is treated
  (2) There are no thermally accessible electronically excited states
  (3) Hindered rotations indicated by low frequency modes are not
      treated as such but are treated as vibrations and this may
      cause some error
  (4) All equations used are the standard statistical mechanics
      equations for an ideal gas
  (5) All vibrations are strictly harmonic

freq.    1543.92  E(vib)   ...       0.00 

------------
INNER ENERGY
------------

The inner energy is: U= E(el) + E(ZPE) + E(vib) + E(rot) + E(trans)
    E(el)   - is the total energy from the electronic structure calculation
              = E(kin-el) + E(nuc-el) + E(el-el) + E(nuc-nuc)
    E(ZPE)  - the the zero temperature vibrational energy from the frequency calculation
    E(vib)  - the the finite temperature correction to E(ZPE) due to population
              of excited vibrational states
    E(rot)  - is the rotational thermal energy
    E(trans)- is the translational thermal energy

Summary of contributions to the inner energy U:
Electronic energy                ...   -113.17971353 Eh
Zero point energy                ...      0.00351732 Eh       2.21 kcal/mol
Thermal vibrational correction   ...      0.00000409 Eh       0.00 kcal/mol
Thermal rotational correction    ...      0.00094418 Eh       0.59 kcal/mol
Thermal translational correction ...      0.00141627 Eh       0.89 kcal/mol
-----------------------------------------------------------------------
Total thermal energy                   -113.17383167 Eh


Summary of corrections to the electronic energy:
(perhaps to be used in another calculation)
Total thermal correction                  0.00236454 Eh       1.48 kcal/mol
Non-thermal (ZPE) correction              0.00351732 Eh       2.21 kcal/mol
-----------------------------------------------------------------------
Total correction                          0.00588186 Eh       3.69 kcal/mol


--------
ENTHALPY
--------

The enthalpy is H = U + kB*T
                kB is Boltzmann's constant
Total free energy                 ...   -113.17383167 Eh 
Thermal Enthalpy correction       ...      0.00094421 Eh       0.59 kcal/mol
-----------------------------------------------------------------------
Total Enthalpy                    ...   -113.17288746 Eh


Note: Rotational entropy computed according to Herzberg 
Infrared and Raman Spectra, Chapter V,1, Van Nostrand Reinhold, 1945 
Point Group:  Cinfv, Symmetry Number:   1  
Rotational constants in cm-1:     0.000000     1.549000     1.549000 

Vibrational entropy computed according to the QRRHO of S. Grimme
Chem.Eur.J. 2012 18 9955


-------
ENTROPY
-------

The entropy contributions are T*S = T*(S(el)+S(vib)+S(rot)+S(trans))
     S(el)   - electronic entropy
     S(vib)  - vibrational entropy
     S(rot)  - rotational entropy
     S(trans)- translational entropy
The entropies will be listed as multiplied by the temperature to get
units of energy

Electronic entropy                ...      0.00065446 Eh      0.41 kcal/mol
Vibrational entropy               ...      0.00000464 Eh      0.00 kcal/mol
Rotational entropy                ...      0.00556708 Eh      3.49 kcal/mol
Translational entropy             ...      0.01706888 Eh     10.71 kcal/mol
-----------------------------------------------------------------------
Final entropy term                ...      0.02329506 Eh     14.62 kcal/mol


-------------------
GIBBS FREE ENERGY
-------------------

The Gibbs free energy is G = H - T*S

Total enthalpy                    ...   -113.17288746 Eh 
Total entropy correction          ...     -0.02329506 Eh    -14.62 kcal/mol
-----------------------------------------------------------------------
Final Gibbs free energy         ...   -113.19618252 Eh

For completeness - the Gibbs free energy minus the electronic energy
G-E(el)                           ...     -0.01646899 Eh    -10.33 kcal/mol


Timings for individual modules:

Sum of individual times         ...       17.922 sec (=   0.299 min)
GTO integral calculation        ...        0.348 sec (=   0.006 min)   1.9 %
SCF iterations                  ...       11.185 sec (=   0.186 min)  62.4 %
SCF Gradient evaluation         ...        2.235 sec (=   0.037 min)  12.5 %
Geometry relaxation             ...        0.180 sec (=   0.003 min)   1.0 %
Analytical frequency calculation...        3.973 sec (=   0.066 min)  22.2 %
                             ****ORCA TERMINATED NORMALLY****
TOTAL RUN TIME: 0 days 0 hours 0 minutes 18 seconds 266 msec
