
                                 *****************
                                 * O   R   C   A *
                                 *****************

                                            #,                                       
                                            ###                                      
                                            ####                                     
                                            #####                                    
                                            ######                                   
                                           ########,                                 
                                     ,,################,,,,,                         
                               ,,#################################,,                 
                          ,,##########################################,,             
                       ,#########################################, ''#####,          
                    ,#############################################,,   '####,        
                  ,##################################################,,,,####,       
                ,###########''''           ''''###############################       
              ,#####''   ,,,,##########,,,,          '''####'''          '####       
            ,##' ,,,,###########################,,,                        '##       
           ' ,,###''''                  '''############,,,                           
         ,,##''                                '''############,,,,        ,,,,,,###''
      ,#''                                            '''#######################'''  
     '                                                          ''''####''''         
             ,#######,   #######,   ,#######,      ##                                
            ,#'     '#,  ##    ##  ,#'     '#,    #''#        ######   ,####,        
            ##       ##  ##   ,#'  ##            #'  '#       #        #'  '#        
            ##       ##  #######   ##           ,######,      #####,   #    #        
            '#,     ,#'  ##    ##  '#,     ,#' ,#      #,         ##   #,  ,#        
             '#######'   ##     ##  '#######'  #'      '#     #####' # '####'        



                  #######################################################
                  #                        -***-                        #
                  #          Department of theory and spectroscopy      #
                  #    Directorship and core code : Frank Neese         #
                  #        Max Planck Institute fuer Kohlenforschung    #
                  #                Kaiser Wilhelm Platz 1               #
                  #                 D-45470 Muelheim/Ruhr               #
                  #                      Germany                        #
                  #                                                     #
                  #                  All rights reserved                #
                  #                        -***-                        #
                  #######################################################


                         Program Version 5.0.3 -  RELEASE  -


 With contributions from (in alphabetic order):
   Daniel Aravena         : Magnetic Suceptibility
   Michael Atanasov       : Ab Initio Ligand Field Theory (pilot matlab implementation)
   Alexander A. Auer      : GIAO ZORA, VPT2 properties, NMR spectrum
   Ute Becker             : Parallelization
   Giovanni Bistoni       : ED, misc. LED, open-shell LED, HFLD
   Martin Brehm           : Molecular dynamics
   Dmytro Bykov           : SCF Hessian
   Vijay G. Chilkuri      : MRCI spin determinant printing, contributions to CSF-ICE
   Dipayan Datta          : RHF DLPNO-CCSD density
   Achintya Kumar Dutta   : EOM-CC, STEOM-CC
   Dmitry Ganyushin       : Spin-Orbit,Spin-Spin,Magnetic field MRCI
   Miquel Garcia          : C-PCM and meta-GGA Hessian, CC/C-PCM, Gaussian charge scheme
   Yang Guo               : DLPNO-NEVPT2, F12-NEVPT2, CIM, IAO-localization
   Andreas Hansen         : Spin unrestricted coupled pair/coupled cluster methods
   Benjamin Helmich-Paris : MC-RPA, TRAH-SCF, COSX integrals
   Lee Huntington         : MR-EOM, pCC
   Robert Izsak           : Overlap fitted RIJCOSX, COSX-SCS-MP3, EOM
   Marcus Kettner         : VPT2
   Christian Kollmar      : KDIIS, OOCD, Brueckner-CCSD(T), CCSD density, CASPT2, CASPT2-K
   Simone Kossmann        : Meta GGA functionals, TD-DFT gradient, OOMP2, MP2 Hessian
   Martin Krupicka        : Initial AUTO-CI
   Lucas Lang             : DCDCAS
   Marvin Lechner         : AUTO-CI (C++ implementation), FIC-MRCC
   Dagmar Lenk            : GEPOL surface, SMD
   Dimitrios Liakos       : Extrapolation schemes; Compound Job, initial MDCI parallelization
   Dimitrios Manganas     : Further ROCIS development; embedding schemes
   Dimitrios Pantazis     : SARC Basis sets
   Anastasios Papadopoulos: AUTO-CI, single reference methods and gradients
   Taras Petrenko         : DFT Hessian,TD-DFT gradient, ASA, ECA, R-Raman, ABS, FL, XAS/XES, NRVS
   Peter Pinski           : DLPNO-MP2, DLPNO-MP2 Gradient
   Christoph Reimann      : Effective Core Potentials
   Marius Retegan         : Local ZFS, SOC
   Christoph Riplinger    : Optimizer, TS searches, QM/MM, DLPNO-CCSD(T), (RO)-DLPNO pert. Triples
   Tobias Risthaus        : Range-separated hybrids, TD-DFT gradient, RPA, STAB
   Michael Roemelt        : Original ROCIS implementation
   Masaaki Saitow         : Open-shell DLPNO-CCSD energy and density
   Barbara Sandhoefer     : DKH picture change effects
   Avijit Sen             : IP-ROCIS
   Kantharuban Sivalingam : CASSCF convergence, NEVPT2, FIC-MRCI
   Bernardo de Souza      : ESD, SOC TD-DFT
   Georgi Stoychev        : AutoAux, RI-MP2 NMR, DLPNO-MP2 response
   Willem Van den Heuvel  : Paramagnetic NMR
   Boris Wezisla          : Elementary symmetry handling
   Frank Wennmohs         : Technical directorship


 We gratefully acknowledge several colleagues who have allowed us to
 interface, adapt or use parts of their codes:
   Stefan Grimme, W. Hujo, H. Kruse, P. Pracht,  : VdW corrections, initial TS optimization,
                  C. Bannwarth, S. Ehlert          DFT functionals, gCP, sTDA/sTD-DF
   Ed Valeev, F. Pavosevic, A. Kumar             : LibInt (2-el integral package), F12 methods
   Garnet Chan, S. Sharma, J. Yang, R. Olivares  : DMRG
   Ulf Ekstrom                                   : XCFun DFT Library
   Mihaly Kallay                                 : mrcc  (arbitrary order and MRCC methods)
   Jiri Pittner, Ondrej Demel                    : Mk-CCSD
   Frank Weinhold                                : gennbo (NPA and NBO analysis)
   Christopher J. Cramer and Donald G. Truhlar   : smd solvation model
   Lars Goerigk                                  : TD-DFT with DH, B97 family of functionals
   V. Asgeirsson, H. Jonsson                     : NEB implementation
   FAccTs GmbH                                   : IRC, NEB, NEB-TS, DLPNO-Multilevel, CI-OPT
                                                   MM, QMMM, 2- and 3-layer-ONIOM, Crystal-QMMM,
                                                   LR-CPCM, SF, NACMEs, symmetry and pop. for TD-DFT,
                                                   nearIR, NL-DFT gradient (VV10), updates on ESD,
                                                   ML-optimized integration grids
   S Lehtola, MJT Oliveira, MAL Marques          : LibXC Library
   Liviu Ungur et al                             : ANISO software


 Your calculation uses the libint2 library for the computation of 2-el integrals
 For citations please refer to: http://libint.valeyev.net

 Your ORCA version has been built with support for libXC version: 5.1.0
 For citations please refer to: https://tddft.org/programs/libxc/

 This ORCA versions uses:
   CBLAS   interface :  Fast vector & matrix operations
   LAPACKE interface :  Fast linear algebra routines
   SCALAPACK package :  Parallel linear algebra routines
   Shared memory     :  Shared parallel matrices
   BLAS/LAPACK       :  OpenBLAS 0.3.19 NO_AFFINITY VORTEX SINGLE_THREADED
        Core in use  :  VORTEX
   Copyright (c) 2011-2014, The OpenBLAS Project


Your calculation utilizes the atom-pairwise dispersion correction
with the Becke-Johnson damping scheme (D3BJ)
Cite in your paper:
S.Grimme, S.Ehrlich, L.Goerigk, J Comput Chem, (2011), 32, 1456–1465 
S.Grimme, J.Antony, S.Ehrlich and H.Krieg, J.Chem.Phys., 132, (2010), 154104 
   

================================================================================

----- Orbital basis set information -----
Your calculation utilizes the basis: 6-311G
   H, Li - Ne  : R. Krishnan, J. S. Binkley, R. Seeger and J. A. Pople, J. Chem. Phys. 72, 650 (1980).
   Na - Ar     : A. D. McLean and G. S. Chandler J. Chem. Phys. 72, 5639, (1980).
   K  - Ca     : J.-P. Blaudeau, M. P. McGrath, L. A. Curtiss and L. Radom, J. Chem. Phys. 107, 5016 (1997).
   Ga - Kr     : L. A. Curtiss, M. P. McGrath, J.-P. Blandeau, N. E. Davis, R. C. Binning and L. Radom, J. Chem. Phys. 103, 6104 (1995).

----- AuxJ basis set information -----
Your calculation utilizes the AutoAux generation procedure.
  G. L. Stoychev, A. A. Auer, F. Neese, J. Chem. Theory Comput. 13, 554 (2017)

----- AuxC basis set information -----
Your calculation utilizes the AutoAux generation procedure.
  G. L. Stoychev, A. A. Auer, F. Neese, J. Chem. Theory Comput. 13, 554 (2017)

----- AuxJK basis set information -----
Your calculation utilizes the AutoAux generation procedure.
  G. L. Stoychev, A. A. Auer, F. Neese, J. Chem. Theory Comput. 13, 554 (2017)

================================================================================
                                        WARNINGS
                       Please study these warnings very carefully!
================================================================================

WARNING: Old DensityContainer found on disk!
         Will remove this file - 
         If you want to keep old densities, please start your calculation with a different basename. 


WARNING: your system is open-shell and RHF/RKS was chosen
  ===> : WILL SWITCH to UHF/UKS


WARNING: Geometry Optimization
  ===> : Switching off AutoStart
         For restart on a previous wavefunction, please use MOREAD

INFO   : the flag for use of the SHARK integral package has been found!

================================================================================
                                       INPUT FILE
================================================================================
NAME = co_p.inp
|  1> !B3LYP D3BJ 6-311G
|  2> !RIJCOSX AutoAux printbasis
|  3> !Opt Freq
|  4> !DEFGRID3 TightSCF
|  5> *xyz 1 2
|  6> C 0.00000000000000 0.00000000000000 0.00000000000000
|  7> O 1.50000000000000 0.00000000000000 0.00000000000000
|  8> **                         ****END OF INPUT****
================================================================================

                       *****************************
                       * Geometry Optimization Run *
                       *****************************

Geometry optimization settings:
Update method            Update   .... BFGS
Choice of coordinates    CoordSys .... Z-matrix Internals
Initial Hessian          InHess   .... Almoef's Model

Convergence Tolerances:
Energy Change            TolE     ....  5.0000e-06 Eh
Max. Gradient            TolMAXG  ....  3.0000e-04 Eh/bohr
RMS Gradient             TolRMSG  ....  1.0000e-04 Eh/bohr
Max. Displacement        TolMAXD  ....  4.0000e-03 bohr
RMS Displacement         TolRMSD  ....  2.0000e-03 bohr
Strict Convergence                ....  False
------------------------------------------------------------------------------
                        ORCA OPTIMIZATION COORDINATE SETUP
------------------------------------------------------------------------------

The optimization will be done in new redundant internal coordinates
Making redundant internal coordinates   ...  (new redundants) done
Evaluating the initial hessian          ...  (Almloef) done
Evaluating the coordinates              ...  done
Calculating the B-matrix                .... done
Calculating the G-matrix                .... done
Diagonalizing the G-matrix              .... done
The first mode is                       ....    0
The number of degrees of freedom        ....    1

    -----------------------------------------------------------------
                    Redundant Internal Coordinates


    -----------------------------------------------------------------
         Definition                    Initial Value    Approx d2E/dq
    -----------------------------------------------------------------
      1. B(O   1,C   0)                  1.5000         0.373575   
    -----------------------------------------------------------------

Number of atoms                         .... 2
Number of degrees of freedom            .... 1

         *************************************************************
         *                GEOMETRY OPTIMIZATION CYCLE   1            *
         *************************************************************
---------------------------------
CARTESIAN COORDINATES (ANGSTROEM)
---------------------------------
  C      0.000000    0.000000    0.000000
  O      1.500000    0.000000    0.000000

----------------------------
CARTESIAN COORDINATES (A.U.)
----------------------------
  NO LB      ZA    FRAG     MASS         X           Y           Z
   0 C     6.0000    0    12.011    0.000000    0.000000    0.000000
   1 O     8.0000    0    15.999    2.834589    0.000000    0.000000

--------------------------------
INTERNAL COORDINATES (ANGSTROEM)
--------------------------------
 C      0   0   0     0.000000000000     0.00000000     0.00000000
 O      1   0   0     1.500000000000     0.00000000     0.00000000

---------------------------
INTERNAL COORDINATES (A.U.)
---------------------------
 C      0   0   0     0.000000000000     0.00000000     0.00000000
 O      1   0   0     2.834589200882     0.00000000     0.00000000

---------------------
BASIS SET INFORMATION
---------------------
There are 2 groups of distinct atoms

 Group   1 Type C   : 11s5p contracted to 4s3p pattern {6311/311}
 Group   2 Type O   : 11s5p contracted to 4s3p pattern {6311/311}

Atom   0C    basis set group =>   1
Atom   1O    basis set group =>   2

-------------------------
BASIS SET IN INPUT FORMAT
-------------------------

 # Basis set for element : C 
 NewGTO C 
 S 6 
   1    4563.2400000000      0.0019666502
   2     682.0240000000      0.0152306019
   3     154.9730000000      0.0761269097
   4      44.4553000000      0.2608010331
   5      13.0290000000      0.6164620782
   6       1.8277300000      0.2210060280
 S 3 
   1      20.9642000000      0.1146600807
   2       4.8033100000      0.9199996477
   3       1.4593300000     -0.0030306821
 P 3 
   1      20.9642000000      0.0402486927
   2       4.8033100000      0.2375939567
   3       1.4593300000      0.8158538515
 S 1 
   1       0.4834560000      1.0000000000
 P 1 
   1       0.4834560000      1.0000000000
 S 1 
   1       0.1455850000      1.0000000000
 P 1 
   1       0.1455850000      1.0000000000
  end;

 # Basis set for element : O 
 NewGTO O 
 S 6 
   1    8588.5000000000      0.0018951501
   2    1297.2300000000      0.0143859006
   3     299.2960000000      0.0707320031
   4      87.3771000000      0.2400010105
   5      25.6789000000      0.5947970261
   6       3.7400400000      0.2808020123
 S 3 
   1      42.1175000000      0.1138890124
   2       9.6283700000      0.9208111006
   3       2.8533200000     -0.0032744704
 P 3 
   1      42.1175000000      0.0365113974
   2       9.6283700000      0.2371529830
   3       2.8533200000      0.8197019412
 S 1 
   1       0.9056610000      1.0000000000
 P 1 
   1       0.9056610000      1.0000000000
 S 1 
   1       0.2556110000      1.0000000000
 P 1 
   1       0.2556110000      1.0000000000
  end;

---------------------------------
AUXILIARY/J BASIS SET INFORMATION
---------------------------------
There are 2 groups of distinct atoms

 Group   1 Type C   : 14s12p8d contracted to 14s12p8d pattern {11111111111111/111111111111/11111111}
 Group   2 Type O   : 14s12p8d contracted to 14s12p8d pattern {11111111111111/111111111111/11111111}

Atom   0C    basis set group =>   1
Atom   1O    basis set group =>   2

-------------------------------------
AUXILIARY/J BASIS SET IN INPUT FORMAT
-------------------------------------

 # Auxiliary/J basis set for element : C 
 NewAuxJGTO C 
 S 1 
   1     606.3022679937      1.0000000000
 S 1 
   1     336.8345933299      1.0000000000
 S 1 
   1     187.1303296277      1.0000000000
 S 1 
   1     103.9612942376      1.0000000000
 S 1 
   1      57.7562745765      1.0000000000
 S 1 
   1      32.0868192091      1.0000000000
 S 1 
   1      17.8260106717      1.0000000000
 S 1 
   1       9.9033392621      1.0000000000
 S 1 
   1       5.5018551456      1.0000000000
 S 1 
   1       3.0565861920      1.0000000000
 S 1 
   1       1.6981034400      1.0000000000
 S 1 
   1       0.9433908000      1.0000000000
 S 1 
   1       0.5241060000      1.0000000000
 S 1 
   1       0.2911700000      1.0000000000
 P 1 
   1     187.1303296277      1.0000000000
 P 1 
   1     103.9612942376      1.0000000000
 P 1 
   1      57.7562745765      1.0000000000
 P 1 
   1      32.0868192091      1.0000000000
 P 1 
   1      17.8260106717      1.0000000000
 P 1 
   1       9.9033392621      1.0000000000
 P 1 
   1       5.5018551456      1.0000000000
 P 1 
   1       3.0565861920      1.0000000000
 P 1 
   1       1.6981034400      1.0000000000
 P 1 
   1       0.9433908000      1.0000000000
 P 1 
   1       0.5241060000      1.0000000000
 P 1 
   1       0.2911700000      1.0000000000
 D 1 
   1      17.8260106717      1.0000000000
 D 1 
   1       9.9033392621      1.0000000000
 D 1 
   1       5.5018551456      1.0000000000
 D 1 
   1       3.0565861920      1.0000000000
 D 1 
   1       1.6981034400      1.0000000000
 D 1 
   1       0.9433908000      1.0000000000
 D 1 
   1       0.5241060000      1.0000000000
 D 1 
   1       0.2911700000      1.0000000000
  end;

 # Auxiliary/J basis set for element : O 
 NewAuxJGTO O 
 S 1 
   1    1064.5157744558      1.0000000000
 S 1 
   1     591.3976524755      1.0000000000
 S 1 
   1     328.5542513753      1.0000000000
 S 1 
   1     182.5301396529      1.0000000000
 S 1 
   1     101.4056331405      1.0000000000
 S 1 
   1      56.3364628558      1.0000000000
 S 1 
   1      31.2980349199      1.0000000000
 S 1 
   1      17.3877971777      1.0000000000
 S 1 
   1       9.6598873210      1.0000000000
 S 1 
   1       5.3666040672      1.0000000000
 S 1 
   1       2.9814467040      1.0000000000
 S 1 
   1       1.6563592800      1.0000000000
 S 1 
   1       0.9201996000      1.0000000000
 S 1 
   1       0.5112220000      1.0000000000
 P 1 
   1     328.5542513753      1.0000000000
 P 1 
   1     182.5301396529      1.0000000000
 P 1 
   1     101.4056331405      1.0000000000
 P 1 
   1      56.3364628558      1.0000000000
 P 1 
   1      31.2980349199      1.0000000000
 P 1 
   1      17.3877971777      1.0000000000
 P 1 
   1       9.6598873210      1.0000000000
 P 1 
   1       5.3666040672      1.0000000000
 P 1 
   1       2.9814467040      1.0000000000
 P 1 
   1       1.6563592800      1.0000000000
 P 1 
   1       0.9201996000      1.0000000000
 P 1 
   1       0.5112220000      1.0000000000
 D 1 
   1      31.2980349199      1.0000000000
 D 1 
   1      17.3877971777      1.0000000000
 D 1 
   1       9.6598873210      1.0000000000
 D 1 
   1       5.3666040672      1.0000000000
 D 1 
   1       2.9814467040      1.0000000000
 D 1 
   1       1.6563592800      1.0000000000
 D 1 
   1       0.9201996000      1.0000000000
 D 1 
   1       0.5112220000      1.0000000000
  end;

---------------------------------
AUXILIARY/C BASIS SET INFORMATION
---------------------------------
There are 2 groups of distinct atoms

 Group   1 Type C   : 14s12p8d contracted to 14s12p8d pattern {11111111111111/111111111111/11111111}
 Group   2 Type O   : 14s12p8d contracted to 14s12p8d pattern {11111111111111/111111111111/11111111}

Atom   0C    basis set group =>   1
Atom   1O    basis set group =>   2

-------------------------------------
AUXILIARY/C BASIS SET IN INPUT FORMAT
-------------------------------------

 # Auxiliary/C basis set for element : C 
 NewAuxCGTO C 
 S 1 
   1     606.3022679937      1.0000000000
 S 1 
   1     336.8345933299      1.0000000000
 S 1 
   1     187.1303296277      1.0000000000
 S 1 
   1     103.9612942376      1.0000000000
 S 1 
   1      57.7562745765      1.0000000000
 S 1 
   1      32.0868192091      1.0000000000
 S 1 
   1      17.8260106717      1.0000000000
 S 1 
   1       9.9033392621      1.0000000000
 S 1 
   1       5.5018551456      1.0000000000
 S 1 
   1       3.0565861920      1.0000000000
 S 1 
   1       1.6981034400      1.0000000000
 S 1 
   1       0.9433908000      1.0000000000
 S 1 
   1       0.5241060000      1.0000000000
 S 1 
   1       0.2911700000      1.0000000000
 P 1 
   1     187.1303296277      1.0000000000
 P 1 
   1     103.9612942376      1.0000000000
 P 1 
   1      57.7562745765      1.0000000000
 P 1 
   1      32.0868192091      1.0000000000
 P 1 
   1      17.8260106717      1.0000000000
 P 1 
   1       9.9033392621      1.0000000000
 P 1 
   1       5.5018551456      1.0000000000
 P 1 
   1       3.0565861920      1.0000000000
 P 1 
   1       1.6981034400      1.0000000000
 P 1 
   1       0.9433908000      1.0000000000
 P 1 
   1       0.5241060000      1.0000000000
 P 1 
   1       0.2911700000      1.0000000000
 D 1 
   1      17.8260106717      1.0000000000
 D 1 
   1       9.9033392621      1.0000000000
 D 1 
   1       5.5018551456      1.0000000000
 D 1 
   1       3.0565861920      1.0000000000
 D 1 
   1       1.6981034400      1.0000000000
 D 1 
   1       0.9433908000      1.0000000000
 D 1 
   1       0.5241060000      1.0000000000
 D 1 
   1       0.2911700000      1.0000000000
  end;

 # Auxiliary/C basis set for element : O 
 NewAuxCGTO O 
 S 1 
   1    1064.5157744558      1.0000000000
 S 1 
   1     591.3976524755      1.0000000000
 S 1 
   1     328.5542513753      1.0000000000
 S 1 
   1     182.5301396529      1.0000000000
 S 1 
   1     101.4056331405      1.0000000000
 S 1 
   1      56.3364628558      1.0000000000
 S 1 
   1      31.2980349199      1.0000000000
 S 1 
   1      17.3877971777      1.0000000000
 S 1 
   1       9.6598873210      1.0000000000
 S 1 
   1       5.3666040672      1.0000000000
 S 1 
   1       2.9814467040      1.0000000000
 S 1 
   1       1.6563592800      1.0000000000
 S 1 
   1       0.9201996000      1.0000000000
 S 1 
   1       0.5112220000      1.0000000000
 P 1 
   1     328.5542513753      1.0000000000
 P 1 
   1     182.5301396529      1.0000000000
 P 1 
   1     101.4056331405      1.0000000000
 P 1 
   1      56.3364628558      1.0000000000
 P 1 
   1      31.2980349199      1.0000000000
 P 1 
   1      17.3877971777      1.0000000000
 P 1 
   1       9.6598873210      1.0000000000
 P 1 
   1       5.3666040672      1.0000000000
 P 1 
   1       2.9814467040      1.0000000000
 P 1 
   1       1.6563592800      1.0000000000
 P 1 
   1       0.9201996000      1.0000000000
 P 1 
   1       0.5112220000      1.0000000000
 D 1 
   1      31.2980349199      1.0000000000
 D 1 
   1      17.3877971777      1.0000000000
 D 1 
   1       9.6598873210      1.0000000000
 D 1 
   1       5.3666040672      1.0000000000
 D 1 
   1       2.9814467040      1.0000000000
 D 1 
   1       1.6563592800      1.0000000000
 D 1 
   1       0.9201996000      1.0000000000
 D 1 
   1       0.5112220000      1.0000000000
  end;

----------------------------------
AUXILIARY/JK BASIS SET INFORMATION
----------------------------------
There are 2 groups of distinct atoms

 Group   1 Type C   : 14s12p8d contracted to 14s12p8d pattern {11111111111111/111111111111/11111111}
 Group   2 Type O   : 14s12p8d contracted to 14s12p8d pattern {11111111111111/111111111111/11111111}

Atom   0C    basis set group =>   1
Atom   1O    basis set group =>   2

--------------------------------------
AUXILIARY/JK BASIS SET IN INPUT FORMAT
--------------------------------------

 # Auxiliary/JK basis set for element : C 
 NewAuxJKGTO C 
 S 1 
   1     606.3022679937      1.0000000000
 S 1 
   1     336.8345933299      1.0000000000
 S 1 
   1     187.1303296277      1.0000000000
 S 1 
   1     103.9612942376      1.0000000000
 S 1 
   1      57.7562745765      1.0000000000
 S 1 
   1      32.0868192091      1.0000000000
 S 1 
   1      17.8260106717      1.0000000000
 S 1 
   1       9.9033392621      1.0000000000
 S 1 
   1       5.5018551456      1.0000000000
 S 1 
   1       3.0565861920      1.0000000000
 S 1 
   1       1.6981034400      1.0000000000
 S 1 
   1       0.9433908000      1.0000000000
 S 1 
   1       0.5241060000      1.0000000000
 S 1 
   1       0.2911700000      1.0000000000
 P 1 
   1     187.1303296277      1.0000000000
 P 1 
   1     103.9612942376      1.0000000000
 P 1 
   1      57.7562745765      1.0000000000
 P 1 
   1      32.0868192091      1.0000000000
 P 1 
   1      17.8260106717      1.0000000000
 P 1 
   1       9.9033392621      1.0000000000
 P 1 
   1       5.5018551456      1.0000000000
 P 1 
   1       3.0565861920      1.0000000000
 P 1 
   1       1.6981034400      1.0000000000
 P 1 
   1       0.9433908000      1.0000000000
 P 1 
   1       0.5241060000      1.0000000000
 P 1 
   1       0.2911700000      1.0000000000
 D 1 
   1      17.8260106717      1.0000000000
 D 1 
   1       9.9033392621      1.0000000000
 D 1 
   1       5.5018551456      1.0000000000
 D 1 
   1       3.0565861920      1.0000000000
 D 1 
   1       1.6981034400      1.0000000000
 D 1 
   1       0.9433908000      1.0000000000
 D 1 
   1       0.5241060000      1.0000000000
 D 1 
   1       0.2911700000      1.0000000000
  end;

 # Auxiliary/JK basis set for element : O 
 NewAuxJKGTO O 
 S 1 
   1    1064.5157744558      1.0000000000
 S 1 
   1     591.3976524755      1.0000000000
 S 1 
   1     328.5542513753      1.0000000000
 S 1 
   1     182.5301396529      1.0000000000
 S 1 
   1     101.4056331405      1.0000000000
 S 1 
   1      56.3364628558      1.0000000000
 S 1 
   1      31.2980349199      1.0000000000
 S 1 
   1      17.3877971777      1.0000000000
 S 1 
   1       9.6598873210      1.0000000000
 S 1 
   1       5.3666040672      1.0000000000
 S 1 
   1       2.9814467040      1.0000000000
 S 1 
   1       1.6563592800      1.0000000000
 S 1 
   1       0.9201996000      1.0000000000
 S 1 
   1       0.5112220000      1.0000000000
 P 1 
   1     328.5542513753      1.0000000000
 P 1 
   1     182.5301396529      1.0000000000
 P 1 
   1     101.4056331405      1.0000000000
 P 1 
   1      56.3364628558      1.0000000000
 P 1 
   1      31.2980349199      1.0000000000
 P 1 
   1      17.3877971777      1.0000000000
 P 1 
   1       9.6598873210      1.0000000000
 P 1 
   1       5.3666040672      1.0000000000
 P 1 
   1       2.9814467040      1.0000000000
 P 1 
   1       1.6563592800      1.0000000000
 P 1 
   1       0.9201996000      1.0000000000
 P 1 
   1       0.5112220000      1.0000000000
 D 1 
   1      31.2980349199      1.0000000000
 D 1 
   1      17.3877971777      1.0000000000
 D 1 
   1       9.6598873210      1.0000000000
 D 1 
   1       5.3666040672      1.0000000000
 D 1 
   1       2.9814467040      1.0000000000
 D 1 
   1       1.6563592800      1.0000000000
 D 1 
   1       0.9201996000      1.0000000000
 D 1 
   1       0.5112220000      1.0000000000
  end;

------------------------------------------------------------------------------
                           ORCA GTO INTEGRAL CALCULATION
                           -- RI-GTO INTEGRALS CHOSEN --
------------------------------------------------------------------------------
------------------------------------------------------------------------------
                   ___                                                        
                  /   \      - P O W E R E D   B Y -                         
                 /     \                                                     
                 |  |  |   _    _      __       _____    __    __             
                 |  |  |  | |  | |    /  \     |  _  \  |  |  /  |          
                  \  \/   | |  | |   /    \    | | | |  |  | /  /          
                 / \  \   | |__| |  /  /\  \   | |_| |  |  |/  /          
                |  |  |   |  __  | /  /__\  \  |    /   |      \           
                |  |  |   | |  | | |   __   |  |    \   |  |\   \          
                \     /   | |  | | |  |  |  |  | |\  \  |  | \   \       
                 \___/    |_|  |_| |__|  |__|  |_| \__\ |__|  \__/        
                                                                              
                      - O R C A' S   B I G   F R I E N D -                    
                                      &                                       
                       - I N T E G R A L  F E E D E R -                       
                                                                              
 v1 FN, 2020, v2 2021                                                         
------------------------------------------------------------------------------


Reading SHARK input file co_p.SHARKINP.tmp ... ok
----------------------
SHARK INTEGRAL PACKAGE
----------------------

Number of atoms                             ...      2
Number of basis functions                   ...     26
Number of shells                            ...     14
Maximum angular momentum                    ...      1
Integral batch strategy                     ... SHARK/LIBINT Hybrid
RI-J (if used) integral strategy            ... SPLIT-RIJ (Revised 2003 algorithm where possible)
Printlevel                                  ...      1
Contraction scheme used                     ... SEGMENTED contraction
Coulomb Range Separation                    ... NOT USED
Exchange Range Separation                   ... NOT USED
Finite Nucleus Model                        ... NOT USED
Auxiliary Coulomb fitting basis             ... AVAILABLE
   # of basis functions in Aux-J            ...    180
   # of shells in Aux-J                     ...     68
   Maximum angular momentum in Aux-J        ...      2
Auxiliary J/K fitting basis                 ... AVAILABLE
   # of basis functions in Aux-JK           ...    180
   # of shells in Aux-JK                    ...     68
   Maximum angular momentum in Aux-JK       ...      2
Auxiliary Correlation fitting basis         ... AVAILABLE
   # of basis functions in Aux-C            ...    180
   # of shells in Aux-C                     ...     68
   Maximum angular momentum in Aux-C        ...      2
Auxiliary 'external' fitting basis          ... NOT available
Integral threshold                          ...     2.500000e-11
Primitive cut-off                           ...     2.500000e-12
Primitive pair pre-selection threshold      ...     2.500000e-12

Calculating pre-screening integrals         ... done (  0.0 sec) Dimension = 14
Organizing shell pair data                  ... done (  0.0 sec)
Shell pair information
Total number of shell pairs                 ...       105
Shell pairs after pre-screening             ...       105
Total number of primitive shell pairs       ...       570
Primitive shell pairs kept                  ...       491
          la=0 lb=0:     36 shell pairs
          la=1 lb=0:     48 shell pairs
          la=1 lb=1:     21 shell pairs

Calculating one electron integrals          ... done (  0.0 sec)
Calculating RI/J V-Matrix + Cholesky decomp.... done (  0.0 sec)
Calculating RI/JK V-Matrix + Cholesky decomp... done (  0.0 sec)
Calculating RI/C V-Matrix + Cholesky decomp.... done (  0.0 sec)
Calculating Nuclear repulsion               ... done (  0.0 sec) ENN=     16.933670665600 Eh

SHARK setup successfully completed in   0.0 seconds

Maximum memory used throughout the entire GTOINT-calculation: 6.1 MB
-------------------------------------------------------------------------------
                                 ORCA SCF
-------------------------------------------------------------------------------

------------
SCF SETTINGS
------------
Hamiltonian:
 Density Functional     Method          .... DFT(GTOs)
 Exchange Functional    Exchange        .... B88
   X-Alpha parameter    XAlpha          ....  0.666667
   Becke's b parameter  XBeta           ....  0.004200
 Correlation Functional Correlation     .... LYP
 LDA part of GGA corr.  LDAOpt          .... VWN-5
 Gradients option       PostSCFGGA      .... off
 Hybrid DFT is turned on
   Fraction HF Exchange ScalHFX         ....  0.200000
   Scaling of DF-GGA-X  ScalDFX         ....  0.720000
   Scaling of DF-GGA-C  ScalDFC         ....  0.810000
   Scaling of DF-LDA-C  ScalLDAC        ....  1.000000
   Perturbative correction              ....  0.000000
   Density functional embedding theory  .... OFF
   NL short-range parameter             ....  4.800000
 RI-approximation to the Coulomb term is turned on
   Number of AuxJ basis functions       .... 180
   RIJ-COSX (HFX calculated with COS-X)).... on


General Settings:
 Integral files         IntName         .... co_p
 Hartree-Fock type      HFTyp           .... UHF
 Total Charge           Charge          ....    1
 Multiplicity           Mult            ....    2
 Number of Electrons    NEL             ....   13
 Basis Dimension        Dim             ....   26
 Nuclear Repulsion      ENuc            ....     16.9336706656 Eh

Convergence Acceleration:
 DIIS                   CNVDIIS         .... on
   Start iteration      DIISMaxIt       ....    12
   Startup error        DIISStart       ....  0.200000
   # of expansion vecs  DIISMaxEq       ....     5
   Bias factor          DIISBfac        ....   1.050
   Max. coefficient     DIISMaxC        ....  10.000
 Trust-Rad. Augm. Hess. CNVTRAH         .... auto
   Auto Start mean grad. ratio tolernc. ....  1.125000
   Auto Start start iteration           ....    20
   Auto Start num. interpolation iter.  ....    10
   Max. Number of Micro iterations      ....    16
   Max. Number of Macro iterations      .... Maxiter - #DIIS iter
   Number of Davidson start vectors     ....     2
   Converg. threshold I  (grad. norm)   ....   1.000e-05
   Converg. threshold II (energy diff.) ....   1.000e-08
   Grad. Scal. Fac. for Micro threshold ....   0.100
   Minimum threshold for Micro iter.    ....   0.010
   NR start threshold (gradient norm)   ....   0.001
   Initial trust radius                 ....   0.400
   Minimum AH scaling param. (alpha)    ....   1.000
   Maximum AH scaling param. (alpha)    .... 1000.000
   Orbital update algorithm             .... Taylor
   White noise on init. David. guess    .... on
   Maximum white noise                  ....   0.010
   Quad. conv. algorithm                .... NR
 SOSCF                  CNVSOSCF        .... off
 Level Shifting         CNVShift        .... on
   Level shift para.    LevelShift      ....    0.2500
   Turn off err/grad.   ShiftErr        ....    0.0010
 Zerner damping         CNVZerner       .... off
 Static damping         CNVDamp         .... on
   Fraction old density DampFac         ....    0.7000
   Max. Damping (<1)    DampMax         ....    0.9800
   Min. Damping (>=0)   DampMin         ....    0.0000
   Turn off err/grad.   DampErr         ....    0.1000
 Fernandez-Rico         CNVRico         .... off

SCF Procedure:
 Maximum # iterations   MaxIter         ....   125
 SCF integral mode      SCFMode         .... Direct
   Integral package                     .... SHARK and LIBINT hybrid scheme
 Reset frequency        DirectResetFreq ....    20
 Integral Threshold     Thresh          ....  2.500e-11 Eh
 Primitive CutOff       TCut            ....  2.500e-12 Eh

Convergence Tolerance:
 Convergence Check Mode ConvCheckMode   .... Total+1el-Energy
 Convergence forced     ConvForced      .... 0
 Energy Change          TolE            ....  1.000e-08 Eh
 1-El. energy change                    ....  1.000e-05 Eh
 DIIS Error             TolErr          ....  5.000e-07


Diagonalization of the overlap matrix:
Smallest eigenvalue                        ... 4.435e-02
Time for diagonalization                   ...    0.000 sec
Threshold for overlap eigenvalues          ... 1.000e-08
Number of eigenvalues below threshold      ... 0
Time for construction of square roots      ...    0.000 sec
Total time needed                          ...    0.000 sec

Time for model grid setup =    0.007 sec

------------------------------
INITIAL GUESS: MODEL POTENTIAL
------------------------------
Loading Hartree-Fock densities                     ... done
Calculating cut-offs                               ... done
Initializing the effective Hamiltonian             ... done
Setting up the integral package (SHARK)            ... done
Starting the Coulomb interaction                   ... done (   0.0 sec)
Reading the grid                                   ... done
Mapping shells                                     ... done
Starting the XC term evaluation                    ... done (   0.0 sec)
  promolecular density results
     # of electrons  =     13.999955814
     EX              =    -13.114041047
     EC              =     -0.472568153
     EX+EC           =    -13.586609200
Transforming the Hamiltonian                       ... done (   0.0 sec)
Diagonalizing the Hamiltonian                      ... done (   0.0 sec)
Back transforming the eigenvectors                 ... done (   0.0 sec)
Now organizing SCF variables                       ... done
                      ------------------
                      INITIAL GUESS DONE (   0.0 sec)
                      ------------------
-------------------
DFT GRID GENERATION
-------------------

General Integration Accuracy     IntAcc      ... 4.959
Radial Grid Type                 RadialGrid  ... OptM3 with GC (2021)
Angular Grid (max. ang.)         AngularGrid ... 6 (Lebedev-590)
Angular grid pruning method      GridPruning ... 4 (adaptive)
Weight generation scheme         WeightScheme... Becke
Basis function cutoff            BFCut       ... 1.0000e-11
Integration weight cutoff        WCut        ... 1.0000e-14
Angular grids for H and He will be reduced by one unit
Partially contracted basis set               ... off
Rotationally invariant grid construction     ... off

Total number of grid points                  ...    29109
Total number of batches                      ...      456
Average number of points per batch           ...       63
Average number of grid points per atom       ...    14554
Time for grid setup =    0.250 sec

--------------------
COSX GRID GENERATION
--------------------

GRIDX 1
-------
General Integration Accuracy     IntAcc      ... 4.020
Radial Grid Type                 RadialGrid  ... OptM3 with GC (2021)
Angular Grid (max. ang.)         AngularGrid ... 2 (Lebedev-110)
Angular grid pruning method      GridPruning ... 4 (adaptive)
Weight generation scheme         WeightScheme... Becke
Basis function cutoff            BFCut       ... 1.0000e-11
Integration weight cutoff        WCut        ... 1.0000e-14
Angular grids for H and He will be reduced by one unit
Partially contracted basis set               ... on
Rotationally invariant grid construction     ... off

Total number of grid points                  ...     3764
Total number of batches                      ...       59
Average number of points per batch           ...       63
Average number of grid points per atom       ...     1882
UseSFitting                                  ... on

GRIDX 2
-------
General Integration Accuracy     IntAcc      ... 4.338
Radial Grid Type                 RadialGrid  ... OptM3 with GC (2021)
Angular Grid (max. ang.)         AngularGrid ... 3 (Lebedev-194)
Angular grid pruning method      GridPruning ... 4 (adaptive)
Weight generation scheme         WeightScheme... Becke
Basis function cutoff            BFCut       ... 1.0000e-11
Integration weight cutoff        WCut        ... 1.0000e-14
Angular grids for H and He will be reduced by one unit
Partially contracted basis set               ... on
Rotationally invariant grid construction     ... off

Total number of grid points                  ...     8425
Total number of batches                      ...      133
Average number of points per batch           ...       63
Average number of grid points per atom       ...     4212
UseSFitting                                  ... on

GRIDX 3
-------
General Integration Accuracy     IntAcc      ... 4.871
Radial Grid Type                 RadialGrid  ... OptM3 with GC (2021)
Angular Grid (max. ang.)         AngularGrid ... 4 (Lebedev-302)
Angular grid pruning method      GridPruning ... 4 (adaptive)
Weight generation scheme         WeightScheme... Becke
Basis function cutoff            BFCut       ... 1.0000e-11
Integration weight cutoff        WCut        ... 1.0000e-14
Angular grids for H and He will be reduced by one unit
Partially contracted basis set               ... on
Rotationally invariant grid construction     ... off

Total number of grid points                  ...    14955
Total number of batches                      ...      235
Average number of points per batch           ...       63
Average number of grid points per atom       ...     7478
UseSFitting                                  ... on

Time for X-Grid setup             =    0.102 sec

--------------
SCF ITERATIONS
--------------
ITER       Energy         Delta-E        Max-DP      RMS-DP      [F,P]     Damp
               ***  Starting incremental Fock matrix formation  ***
  0   -112.3503647467   0.000000000000 0.11241117  0.00831512  0.2351650 0.7000
  1   -112.4378262479  -0.087461501272 0.02698662  0.00220709  0.0703559 0.7000
                               ***Turning on DIIS***
  2   -112.4821113660  -0.044285118029 0.06950713  0.00647004  0.0580367 0.0000
  3   -112.4837809099  -0.001669543973 0.01292307  0.00090063  0.1838751 0.7000
  4   -112.5140053673  -0.030224457330 0.01386079  0.00089058  0.1553570 0.7000
  5   -112.5417882112  -0.027782843959 0.01229146  0.00076134  0.1258863 0.7000
  6   -112.5625830175  -0.020794806250 0.01048098  0.00063613  0.1006870 0.7000
  7   -112.5772037922  -0.014620774684 0.04565888  0.00274399  0.0802218 0.0000
  8   -112.6052195316  -0.028015739480 0.00556390  0.00031270  0.0108144 0.0000
  9   -112.6055430935  -0.000323561896 0.00101137  0.00011318  0.0038166 0.0000
 10   -112.6055977790  -0.000054685496 0.00070317  0.00008671  0.0021503 0.0000
 11   -112.6056224659  -0.000024686860 0.00055155  0.00006714  0.0011579 0.0000
 12   -112.6056359572  -0.000013491265 0.00101312  0.00013158  0.0008837 0.0000
               *** Restarting incremental Fock matrix formation ***
                                   *** Resetting DIIS ***
 13   -112.6056596176  -0.000023660400 0.00082038  0.00008873  0.0007075 0.0000
 14   -112.6056713691  -0.000011751525 0.00015303  0.00001483  0.0012631 0.0000
 15   -112.6056744745  -0.000003105387 0.00072345  0.00008088  0.0008016 0.0000
 16   -112.6056867435  -0.000012269047 0.00174174  0.00019485  0.0007629 0.0000
 17   -112.6057149251  -0.000028181627 0.00710653  0.00080097  0.0004673 0.0000
 18   -112.6057946197  -0.000079694583 0.00068371  0.00002975  0.0010488 0.0000
 19   -112.6057986381  -0.000004018341 0.00598255  0.00059522  0.0004242 0.0000

 WARNING: the maximum gradient error descreased on average only by a factor   1.1
          during the last 20 iterations

                      *** Initiating the TRAH-SCF procedure ***


TRAH GRIDX
----------

General Integration Accuracy     IntAcc      ... 3.067
Radial Grid Type                 RadialGrid  ... OptM3 with GC (2021)
Angular Grid (max. ang.)         AngularGrid ... 2 (Lebedev-110)
Angular grid pruning method      GridPruning ... 4 (adaptive)
Weight generation scheme         WeightScheme... Becke
Basis function cutoff            BFCut       ... 1.0000e-11
Integration weight cutoff        WCut        ... 1.0000e-14
Angular grids for H and He will be reduced by one unit
Partially contracted basis set               ... on
Rotationally invariant grid construction     ... off

Total number of grid points                  ...     2181
Total number of batches                      ...       35
Average number of points per batch           ...       62
Average number of grid points per atom       ...     1090


TRAH GRID
---------

General Integration Accuracy     IntAcc      ... 3.467
Radial Grid Type                 RadialGrid  ... OptM3 with GC (2021)
Angular Grid (max. ang.)         AngularGrid ... 3 (Lebedev-194)
Angular grid pruning method      GridPruning ... 4 (adaptive)
Weight generation scheme         WeightScheme... Becke
Basis function cutoff            BFCut       ... 1.0000e-11
Integration weight cutoff        WCut        ... 1.0000e-14
Angular grids for H and He will be reduced by one unit
Partially contracted basis set               ... off
Rotationally invariant grid construction     ... off

Total number of grid points                  ...     5120
Total number of batches                      ...       81
Average number of points per batch           ...       63
Average number of grid points per atom       ...     2560

 --------------------------------------------------------------------------------------------
   Iter.        energy            ||Error||_2        Shift      TRadius  Mac/Mic        Rej.
 --------------------------------------------------------------------------------------------
    0       -112.605819074336     2.149985e-03                     0.400 (TRAH MAcro)   No
    0     dE    -1.546983e-06     2.515147e-03    -1.5470e-06      0.001 (TRAH MIcro)
    0     dE    -2.100865e-06     1.971648e-04    -2.1009e-06      0.001 (TRAH MIcro)
    1       -112.605821176017     1.969417e-04                           (NR   MAcro)
    1     dE    -5.659219e-08     2.434923e-04                           (NR   MIcro)
    1     dE    -1.032090e-07     1.437465e-04                           (NR   MIcro)
    1     dE    -1.419767e-07     2.342730e-04                           (NR   MIcro)
    1     dE    -2.192193e-07     2.041633e-04                           (NR   MIcro)
    1     dE    -2.291259e-07     2.908615e-05                           (NR   MIcro)
    1     dE    -2.297178e-07     9.353261e-06                           (NR   MIcro)
    1     dE    -2.297308e-07     1.807782e-06                           (NR   MIcro)
    1     dE    -2.297313e-07     2.034381e-07                           (NR   MIcro)
    2       -112.605821405224     2.534145e-06                           (NR   MAcro)
    2     dE    -2.584974e-12     1.144246e-06                           (NR   MIcro)
    2     dE    -5.509376e-12     6.698133e-07                           (NR   MIcro)
    3       -112.605821405229     6.701631e-07                           (NR   MAcro)

               *****************************************************
               *                     SUCCESS                       *
               *           SCF CONVERGED AFTER  36 CYCLES          *
               *****************************************************

Old exchange energy                            =     -2.525694851 Eh
New exchange energy                            =     -2.525695960 Eh
Exchange energy change after final integration =     -0.000001109 Eh
Total energy after final integration           =   -112.605822514 Eh
Final COS-X integration done in                =     0.087 sec

----------------
TOTAL SCF ENERGY
----------------

Total Energy       :         -112.60582251 Eh           -3064.16021 eV

Components:
Nuclear Repulsion  :           16.93367067 Eh             460.78860 eV
Electronic Energy  :         -129.53949318 Eh           -3524.94881 eV
One Electron Energy:         -181.74068795 Eh           -4945.41554 eV
Two Electron Energy:           52.20119477 Eh            1420.46672 eV
Max COSX asymmetry :            0.00000004 Eh               0.00000 eV

Virial components:
Potential Energy   :         -224.41242224 Eh           -6106.57246 eV
Kinetic Energy     :          111.80659972 Eh            3042.41225 eV
Virial Ratio       :            2.00714826


DFT components:
N(Alpha)           :        6.999999239969 electrons
N(Beta)            :        5.999999516840 electrons
N(Total)           :       12.999998756808 electrons
E(X)               :      -10.167983379235 Eh       
E(C)               :       -0.516105627234 Eh       
E(XC)              :      -10.684089006468 Eh       
DFET-embed. en.    :        0.000000000000 Eh       

---------------
SCF CONVERGENCE
---------------

  Last Energy change         ...   -5.2722e-12  Tolerance :   1.0000e-08
  Last Orbital Gradient      ...    6.7016e-07  Tolerance :   1.0000e-05
  Last Orbital Rotation      ...    4.3399e-06

             **** THE GBW FILE WAS UPDATED (co_p.gbw) ****
             **** DENSITY co_p.scfp WAS UPDATED ****
             **** ENERGY FILE WAS UPDATED (co_p.en.tmp) ****
----------------------
UHF SPIN CONTAMINATION
----------------------

Warning: in a DFT calculation there is little theoretical justification to 
         calculate <S**2> as in Hartree-Fock theory. We will do it anyways
         but you should keep in mind that the values have only limited relevance

Expectation value of <S**2>     :     0.819571
Ideal value S*(S+1) for S=0.5   :     0.750000
Deviation                       :     0.069571

             **** THE GBW FILE WAS UPDATED (co_p.gbw) ****
             **** DENSITY co_p.scfp WAS UPDATED ****
----------------
ORBITAL ENERGIES
----------------
                 SPIN UP ORBITALS
  NO   OCC          E(Eh)            E(eV) 
   0   1.0000     -19.664852      -535.1078 
   1   1.0000     -10.856288      -295.4146 
   2   1.0000      -1.409577       -38.3565 
   3   1.0000      -1.007416       -27.4132 
   4   1.0000      -0.832046       -22.6411 
   5   1.0000      -0.758980       -20.6529 
   6   1.0000      -0.758980       -20.6529 
   7   0.0000      -0.536265       -14.5925 
   8   0.0000      -0.536265       -14.5925 
   9   0.0000      -0.318216        -8.6591 
  10   0.0000       0.059916         1.6304 
  11   0.0000       0.078333         2.1316 
  12   0.0000       0.078333         2.1316 
  13   0.0000       0.079353         2.1593 
  14   0.0000       0.457054        12.4371 
  15   0.0000       0.471011        12.8169 
  16   0.0000       0.471011        12.8169 
  17   0.0000       0.890387        24.2287 
  18   0.0000       2.067994        56.2730 
  19   0.0000       2.067994        56.2730 
  20   0.0000       2.156878        58.6916 
  21   0.0000       4.323349       117.6443 
  22   0.0000       4.323349       117.6443 
  23   0.0000       4.348802       118.3369 
  24   0.0000      22.530580       613.0883 
  25   0.0000      49.194941      1338.6624 

                 SPIN DOWN ORBITALS
  NO   OCC          E(Eh)            E(eV) 
   0   1.0000     -19.662458      -535.0427 
   1   1.0000     -10.837346      -294.8992 
   2   1.0000      -1.398630       -38.0586 
   3   1.0000      -0.936846       -25.4929 
   4   1.0000      -0.765132       -20.8203 
   5   1.0000      -0.765132       -20.8203 
   6   0.0000      -0.653742       -17.7892 
   7   0.0000      -0.501856       -13.6562 
   8   0.0000      -0.501856       -13.6562 
   9   0.0000      -0.261999        -7.1293 
  10   0.0000       0.077893         2.1196 
  11   0.0000       0.093661         2.5487 
  12   0.0000       0.093661         2.5487 
  13   0.0000       0.119777         3.2593 
  14   0.0000       0.464085        12.6284 
  15   0.0000       0.464085        12.6284 
  16   0.0000       0.483326        13.1520 
  17   0.0000       0.896332        24.3904 
  18   0.0000       2.095781        57.0291 
  19   0.0000       2.095781        57.0291 
  20   0.0000       2.209875        60.1338 
  21   0.0000       4.310515       117.2951 
  22   0.0000       4.310515       117.2951 
  23   0.0000       4.395886       119.6181 
  24   0.0000      22.552234       613.6775 
  25   0.0000      49.197654      1338.7362 

                    ********************************
                    * MULLIKEN POPULATION ANALYSIS *
                    ********************************

--------------------------------------------
MULLIKEN ATOMIC CHARGES AND SPIN POPULATIONS
--------------------------------------------
   0 C :    0.929817    0.909495
   1 O :    0.070183    0.090505
Sum of atomic charges         :    1.0000000
Sum of atomic spin populations:    1.0000000

-----------------------------------------------------
MULLIKEN REDUCED ORBITAL CHARGES AND SPIN POPULATIONS
-----------------------------------------------------
CHARGE
  0 C s       :     3.598289  s :     3.598289
      pz      :     0.498028  p :     1.471894
      px      :     0.475838
      py      :     0.498028
  1 O s       :     4.000157  s :     4.000157
      pz      :     1.501972  p :     3.929661
      px      :     0.925717
      py      :     1.501972

SPIN
  0 C s       :     0.219548  s :     0.219548
      pz      :     0.152603  p :     0.689947
      px      :     0.384742
      py      :     0.152603
  1 O s       :    -0.003500  s :    -0.003500
      pz      :    -0.152603  p :     0.094005
      px      :     0.399211
      py      :    -0.152603


                     *******************************
                     * LOEWDIN POPULATION ANALYSIS *
                     *******************************

-------------------------------------------
LOEWDIN ATOMIC CHARGES AND SPIN POPULATIONS
-------------------------------------------
   0 C :    0.810308    0.923120
   1 O :    0.189692    0.076880

----------------------------------------------------
LOEWDIN REDUCED ORBITAL CHARGES AND SPIN POPULATIONS
----------------------------------------------------
CHARGE
  0 C s       :     3.516999  s :     3.516999
      pz      :     0.514662  p :     1.672693
      px      :     0.643368
      py      :     0.514662
  1 O s       :     3.809183  s :     3.809183
      pz      :     1.485338  p :     4.001125
      px      :     1.030449
      py      :     1.485338

SPIN
  0 C s       :     0.226551  s :     0.226551
      pz      :     0.149596  p :     0.696569
      px      :     0.397376
      py      :     0.149596
  1 O s       :     0.005715  s :     0.005715
      pz      :    -0.149596  p :     0.071165
      px      :     0.370358
      py      :    -0.149596


                      *****************************
                      * MAYER POPULATION ANALYSIS *
                      *****************************

  NA   - Mulliken gross atomic population
  ZA   - Total nuclear charge
  QA   - Mulliken gross atomic charge
  VA   - Mayer's total valence
  BVA  - Mayer's bonded valence
  FA   - Mayer's free valence

  ATOM       NA         ZA         QA         VA         BVA        FA
  0 C      5.0702     6.0000     0.9298     2.7634     2.2467     0.5166
  1 O      7.9298     8.0000     0.0702     2.4628     2.2467     0.2161

  Mayer bond orders larger than 0.100000
B(  0-C ,  1-O ) :   2.2467 

-------
TIMINGS
-------

Total SCF time: 0 days 0 hours 0 min 3 sec 

Total time                  ....       3.041 sec
Sum of individual times     ....       2.985 sec  ( 98.2%)

Fock matrix formation       ....       2.600 sec  ( 85.5%)
  Split-RI-J                ....       0.109 sec  (  4.2% of F)
  Chain of spheres X        ....       1.322 sec  ( 50.8% of F)
  XC integration            ....       1.157 sec  ( 44.5% of F)
    Basis function eval.    ....       0.288 sec  ( 24.9% of XC)
    Density eval.           ....       0.331 sec  ( 28.6% of XC)
    XC-Functional eval.     ....       0.257 sec  ( 22.2% of XC)
    XC-Potential eval.      ....       0.181 sec  ( 15.7% of XC)
Diagonalization             ....       0.003 sec  (  0.1%)
Density matrix formation    ....       0.001 sec  (  0.0%)
Population analysis         ....       0.001 sec  (  0.0%)
Initial guess               ....       0.004 sec  (  0.1%)
Orbital Transformation      ....       0.001 sec  (  0.0%)
Orbital Orthonormalization  ....       0.000 sec  (  0.0%)
DIIS solution               ....       0.016 sec  (  0.5%)
Grid generation             ....       0.359 sec  ( 11.8%)

Maximum memory used throughout the entire SCF-calculation: 41.7 MB


-------------------------------------------------------------------------------
                          DFT DISPERSION CORRECTION                            
                                                                               
                              DFTD3 V3.1  Rev 1                                
                          USING Becke-Johnson damping                          
-------------------------------------------------------------------------------
The B3LYP functional is recognized
Active option DFTDOPT                   ...         4   

molecular C6(AA) [au] = 100.990603 


            DFT-D V3
 parameters
 s6 scaling factor         :     1.0000 
 a1 scaling factor         :     0.3981 
 s8 scaling factor         :     1.9889 
 a2 scaling factor         :     4.4211 
 ad hoc parameters k1-k3   :    16.0000     1.3333    -4.0000 

 Edisp/kcal,au: -0.455779278613  -0.000726330436 
 E6   /kcal   :  -0.208255859 
 E8   /kcal   :  -0.247523419 
 % E8         :  54.307738579 

-------------------------   ----------------
Dispersion correction           -0.000726330
-------------------------   ----------------


-------------------------   --------------------
FINAL SINGLE POINT ENERGY      -112.606548844542
-------------------------   --------------------

------------------------------------------------------------------------------
                         ORCA SCF GRADIENT CALCULATION
------------------------------------------------------------------------------

 ... reading COSX grid (gridx3)
Gradient of the Kohn-Sham DFT energy:
Kohn-Sham wavefunction type      ... UKS
Hartree-Fock exchange scaling    ...    0.200
Number of operators              ...    2
Number of atoms                  ...    2
Basis set dimensions             ...   26
Integral neglect threshold       ... 2.5e-11
Integral primitive cutoff        ... 2.5e-12
SHARK Integral package           ... ON

Nuc. rep. gradient       (SHARK) ... done (  0.0 sec)
HCore & Overlap gradient (SHARK) ... done (  0.0 sec)
RI-J gradient            (SHARK) ... done (  0.0 sec)
COSX-gradient                    ... done (  0.1 sec)
Exchange-correlation gradient    ... done
Dispersion correction            ... done

------------------
CARTESIAN GRADIENT
------------------

   1   C   :   -0.208191230   -0.000000008    0.000000007
   2   O   :    0.208184090    0.000000010   -0.000000009

Difference to translation invariance:
           :   -0.0000071400    0.0000000014   -0.0000000016

Difference to rotation invariance:
           :    0.0000000000    0.0000000246    0.0000000274

Norm of the cartesian gradient     ...    0.2944218125
RMS gradient                       ...    0.1201972016
MAX gradient                       ...    0.2081912301

-------
TIMINGS
-------

Total SCF gradient time            ...        0.325 sec

One electron gradient       ....       0.001 sec  (  0.2%)
RI-J Coulomb gradient       ....       0.015 sec  (  4.6%)
COSX gradient               ....       0.117 sec  ( 36.1%)
XC gradient                 ....       0.140 sec  ( 43.1%)

Maximum memory used throughout the entire SCFGRAD-calculation: 31.8 MB
------------------------------------------------------------------------------
                         ORCA GEOMETRY RELAXATION STEP
------------------------------------------------------------------------------

Reading the OPT-File                    .... done
Getting information on internals        .... done
Copying old internal coords+grads       .... done
Making the new internal coordinates     .... (new redundants).... done
Validating the new internal coordinates .... (new redundants).... done
Calculating the B-matrix                .... done
Calculating the G,G- and P matrices     .... done
Transforming gradient to internals      .... done
Projecting the internal gradient        .... done
Number of atoms                         ....   2
Number of internal coordinates          ....   1
Current Energy                          ....  -112.606548845 Eh
Current gradient norm                   ....     0.294421812 Eh/bohr
Maximum allowed component of the step   ....  0.300
Current trust radius                    ....  0.300
Evaluating the initial hessian          ....  (Almloef) done
Projecting the Hessian                  .... done
Forming the augmented Hessian           .... done
Diagonalizing the augmented Hessian     .... done
Last element of RFO vector              ....  0.913185425
Lowest eigenvalues of augmented Hessian:
 -0.092911799
Length of the computed step             ....  0.446288693
Warning: the length of the step is outside the trust region - taking restricted step instead
The input lambda is                     ....    -0.092912
   iter:   1  x=   -0.220760  g=    0.853931 f(x)=     0.109174
   iter:   2  x=   -0.299958  g=    0.412901 f(x)=     0.032701
   iter:   3  x=   -0.319491  g=    0.283703 f(x)=     0.005542
   iter:   4  x=   -0.320382  g=    0.260385 f(x)=     0.000232
   iter:   5  x=   -0.320384  g=    0.259383 f(x)=     0.000000
   iter:   6  x=   -0.320384  g=    0.259381 f(x)=     0.000000
   iter:   7  x=   -0.320384  g=    0.259381 f(x)=    -0.000000
The output lambda is                    ....    -0.320384 (7 iterations)
The final length of the internal step   ....  0.300000000
Converting the step to cartesian space:
 Initial RMS(Int)=    0.3000000000
Transforming coordinates:
 Iter   0:  RMS(Cart)=    0.0866025404 RMS(Int)=    0.3000000000
 Iter   1:  RMS(Cart)=    0.0000000000 RMS(Int)=    0.0000000000
done
Storing new coordinates                 .... done

                                .--------------------.
          ----------------------|Geometry convergence|-------------------------
          Item                value                   Tolerance       Converged
          ---------------------------------------------------------------------
          RMS gradient        0.2081876601            0.0001000000      NO
          MAX gradient        0.2081876601            0.0003000000      NO
          RMS step            0.3000000000            0.0020000000      NO
          MAX step            0.3000000000            0.0040000000      NO
          ........................................................
          Max(Bonds)      0.1588      Max(Angles)    0.00
          Max(Dihed)        0.00      Max(Improp)    0.00
          ---------------------------------------------------------------------

The optimization has not yet converged - more geometry cycles are needed


    ---------------------------------------------------------------------------
                         Redundant Internal Coordinates
                            (Angstroem and degrees)

        Definition                    Value    dE/dq     Step     New-Value
    ----------------------------------------------------------------------------
     1. B(O   1,C   0)                1.5000  0.208188 -0.1588    1.3412   
    ----------------------------------------------------------------------------

         *************************************************************
         *                GEOMETRY OPTIMIZATION CYCLE   2            *
         *************************************************************
---------------------------------
CARTESIAN COORDINATES (ANGSTROEM)
---------------------------------
  C      0.079377    0.000000    0.000000
  O      1.420623    0.000000    0.000000

----------------------------
CARTESIAN COORDINATES (A.U.)
----------------------------
  NO LB      ZA    FRAG     MASS         X           Y           Z
   0 C     6.0000    0    12.011    0.150000    0.000000    0.000000
   1 O     8.0000    0    15.999    2.684589    0.000000    0.000000

--------------------------------
INTERNAL COORDINATES (ANGSTROEM)
--------------------------------
 C      0   0   0     0.000000000000     0.00000000     0.00000000
 O      1   0   0     1.341246837510     0.00000000     0.00000000

---------------------------
INTERNAL COORDINATES (A.U.)
---------------------------
 C      0   0   0     0.000000000000     0.00000000     0.00000000
 O      1   0   0     2.534589200882     0.00000000     0.00000000

------------------------------------------------------------------------------
                   ___                                                        
                  /   \      - P O W E R E D   B Y -                         
                 /     \                                                     
                 |  |  |   _    _      __       _____    __    __             
                 |  |  |  | |  | |    /  \     |  _  \  |  |  /  |          
                  \  \/   | |  | |   /    \    | | | |  |  | /  /          
                 / \  \   | |__| |  /  /\  \   | |_| |  |  |/  /          
                |  |  |   |  __  | /  /__\  \  |    /   |      \           
                |  |  |   | |  | | |   __   |  |    \   |  |\   \          
                \     /   | |  | | |  |  |  |  | |\  \  |  | \   \       
                 \___/    |_|  |_| |__|  |__|  |_| \__\ |__|  \__/        
                                                                              
                      - O R C A' S   B I G   F R I E N D -                    
                                      &                                       
                       - I N T E G R A L  F E E D E R -                       
                                                                              
 v1 FN, 2020, v2 2021                                                         
------------------------------------------------------------------------------


Reading SHARK input file co_p.SHARKINP.tmp ... ok
----------------------
SHARK INTEGRAL PACKAGE
----------------------

Number of atoms                             ...      2
Number of basis functions                   ...     26
Number of shells                            ...     14
Maximum angular momentum                    ...      1
Integral batch strategy                     ... SHARK/LIBINT Hybrid
RI-J (if used) integral strategy            ... SPLIT-RIJ (Revised 2003 algorithm where possible)
Printlevel                                  ...      1
Contraction scheme used                     ... SEGMENTED contraction
Coulomb Range Separation                    ... NOT USED
Exchange Range Separation                   ... NOT USED
Finite Nucleus Model                        ... NOT USED
Auxiliary Coulomb fitting basis             ... AVAILABLE
   # of basis functions in Aux-J            ...    180
   # of shells in Aux-J                     ...     68
   Maximum angular momentum in Aux-J        ...      2
Auxiliary J/K fitting basis                 ... AVAILABLE
   # of basis functions in Aux-JK           ...    180
   # of shells in Aux-JK                    ...     68
   Maximum angular momentum in Aux-JK       ...      2
Auxiliary Correlation fitting basis         ... AVAILABLE
   # of basis functions in Aux-C            ...    180
   # of shells in Aux-C                     ...     68
   Maximum angular momentum in Aux-C        ...      2
Auxiliary 'external' fitting basis          ... NOT available
Integral threshold                          ...     2.500000e-11
Primitive cut-off                           ...     2.500000e-12
Primitive pair pre-selection threshold      ...     2.500000e-12

Calculating pre-screening integrals         ... done (  0.0 sec) Dimension = 14
Organizing shell pair data                  ... done (  0.0 sec)
Shell pair information
Total number of shell pairs                 ...       105
Shell pairs after pre-screening             ...       105
Total number of primitive shell pairs       ...       570
Primitive shell pairs kept                  ...       504
          la=0 lb=0:     36 shell pairs
          la=1 lb=0:     48 shell pairs
          la=1 lb=1:     21 shell pairs

Calculating one electron integrals          ... done (  0.0 sec)
Calculating RI/J V-Matrix + Cholesky decomp.... done (  0.0 sec)
Calculating RI/JK V-Matrix + Cholesky decomp... done (  0.0 sec)
Calculating RI/C V-Matrix + Cholesky decomp.... done (  0.0 sec)
Calculating Nuclear repulsion               ... done (  0.0 sec) ENN=     18.937980159980 Eh

SHARK setup successfully completed in   0.0 seconds

Maximum memory used throughout the entire GTOINT-calculation: 6.1 MB

Diagonalization of the overlap matrix:
Smallest eigenvalue                        ... 3.350e-02
Time for diagonalization                   ...    0.000 sec
Threshold for overlap eigenvalues          ... 1.000e-08
Number of eigenvalues below threshold      ... 0
Time for construction of square roots      ...    0.000 sec
Total time needed                          ...    0.000 sec

-------------------
DFT GRID GENERATION
-------------------

General Integration Accuracy     IntAcc      ... 4.959
Radial Grid Type                 RadialGrid  ... OptM3 with GC (2021)
Angular Grid (max. ang.)         AngularGrid ... 6 (Lebedev-590)
Angular grid pruning method      GridPruning ... 4 (adaptive)
Weight generation scheme         WeightScheme... Becke
Basis function cutoff            BFCut       ... 1.0000e-11
Integration weight cutoff        WCut        ... 1.0000e-14
Angular grids for H and He will be reduced by one unit
Partially contracted basis set               ... off
Rotationally invariant grid construction     ... off

Total number of grid points                  ...    29099
Total number of batches                      ...      456
Average number of points per batch           ...       63
Average number of grid points per atom       ...    14550
Time for grid setup =    0.249 sec

--------------------
COSX GRID GENERATION
--------------------

GRIDX 1
-------
General Integration Accuracy     IntAcc      ... 4.020
Radial Grid Type                 RadialGrid  ... OptM3 with GC (2021)
Angular Grid (max. ang.)         AngularGrid ... 2 (Lebedev-110)
Angular grid pruning method      GridPruning ... 4 (adaptive)
Weight generation scheme         WeightScheme... Becke
Basis function cutoff            BFCut       ... 1.0000e-11
Integration weight cutoff        WCut        ... 1.0000e-14
Angular grids for H and He will be reduced by one unit
Partially contracted basis set               ... on
Rotationally invariant grid construction     ... off

Total number of grid points                  ...     3763
Total number of batches                      ...       60
Average number of points per batch           ...       62
Average number of grid points per atom       ...     1882
UseSFitting                                  ... on

GRIDX 2
-------
General Integration Accuracy     IntAcc      ... 4.338
Radial Grid Type                 RadialGrid  ... OptM3 with GC (2021)
Angular Grid (max. ang.)         AngularGrid ... 3 (Lebedev-194)
Angular grid pruning method      GridPruning ... 4 (adaptive)
Weight generation scheme         WeightScheme... Becke
Basis function cutoff            BFCut       ... 1.0000e-11
Integration weight cutoff        WCut        ... 1.0000e-14
Angular grids for H and He will be reduced by one unit
Partially contracted basis set               ... on
Rotationally invariant grid construction     ... off

Total number of grid points                  ...     8423
Total number of batches                      ...      132
Average number of points per batch           ...       63
Average number of grid points per atom       ...     4212
UseSFitting                                  ... on

GRIDX 3
-------
General Integration Accuracy     IntAcc      ... 4.871
Radial Grid Type                 RadialGrid  ... OptM3 with GC (2021)
Angular Grid (max. ang.)         AngularGrid ... 4 (Lebedev-302)
Angular grid pruning method      GridPruning ... 4 (adaptive)
Weight generation scheme         WeightScheme... Becke
Basis function cutoff            BFCut       ... 1.0000e-11
Integration weight cutoff        WCut        ... 1.0000e-14
Angular grids for H and He will be reduced by one unit
Partially contracted basis set               ... on
Rotationally invariant grid construction     ... off

Total number of grid points                  ...    14953
Total number of batches                      ...      235
Average number of points per batch           ...       63
Average number of grid points per atom       ...     7476
UseSFitting                                  ... on

Time for X-Grid setup             =    0.101 sec

--------------
SCF ITERATIONS
--------------
ITER       Energy         Delta-E        Max-DP      RMS-DP      [F,P]     Damp
               ***  Starting incremental Fock matrix formation  ***
  0   -112.6548348486   0.000000000000 0.00902655  0.00080034  0.0521978 0.7000
  1   -112.6588828991  -0.004048050508 0.00875178  0.00072412  0.0344774 0.7000
                               ***Turning on DIIS***
  2   -112.6618350338  -0.002952134727 0.02356348  0.00197343  0.0240875 0.0000
  3   -112.6696402160  -0.007805182197 0.01940014  0.00079196  0.0124418 0.0000
  4   -112.6699057594  -0.000265543423 0.00354941  0.00029985  0.0093391 0.0000
  5   -112.6703157487  -0.000409989230 0.00383013  0.00027933  0.0035373 0.0000
  6   -112.6704517130  -0.000135964370 0.00436437  0.00021294  0.0020101 0.0000
  7   -112.6705005072  -0.000048794139 0.00431855  0.00023005  0.0009380 0.0000
               *** Restarting incremental Fock matrix formation ***
                                   *** Resetting DIIS ***
  8   -112.6705259933  -0.000025486146 0.00052613  0.00004872  0.0004980 0.0000
  9   -112.6705273509  -0.000001357556 0.00035895  0.00002239  0.0008869 0.0000
 10   -112.6705298240  -0.000002473153 0.00102232  0.00007233  0.0002823 0.0000
 11   -112.6705336524  -0.000003828404 0.00120340  0.00009829  0.0002351 0.0000
 12   -112.6705361376  -0.000002485158 0.00026308  0.00002056  0.0000981 0.0000
 13   -112.6705362564  -0.000000118860 0.00003041  0.00000310  0.0000204 0.0000
 14   -112.6705362602  -0.000000003779 0.00001255  0.00000081  0.0000064 0.0000
                 **** Energy Check signals convergence ****

               *****************************************************
               *                     SUCCESS                       *
               *           SCF CONVERGED AFTER  15 CYCLES          *
               *****************************************************

Old exchange energy                            =     -2.544013502 Eh
New exchange energy                            =     -2.544013948 Eh
Exchange energy change after final integration =     -0.000000446 Eh
Total energy after final integration           =   -112.670536707 Eh
Final COS-X integration done in                =     0.088 sec
Total Energy       :         -112.67053671 Eh           -3065.92117 eV
  Last Energy change         ...   -3.5483e-10  Tolerance :   1.0000e-08
  Last MAX-Density change    ...    0.0000e+00  Tolerance :   1.0000e-07
             **** THE GBW FILE WAS UPDATED (co_p.gbw) ****
             **** DENSITY co_p.scfp WAS UPDATED ****
             **** ENERGY FILE WAS UPDATED (co_p.en.tmp) ****
----------------------
UHF SPIN CONTAMINATION
----------------------

Warning: in a DFT calculation there is little theoretical justification to 
         calculate <S**2> as in Hartree-Fock theory. We will do it anyways
         but you should keep in mind that the values have only limited relevance

Expectation value of <S**2>     :     0.795197
Ideal value S*(S+1) for S=0.5   :     0.750000
Deviation                       :     0.045197

             **** THE GBW FILE WAS UPDATED (co_p.gbw) ****
             **** DENSITY co_p.scfp WAS UPDATED ****
Total SCF time: 0 days 0 hours 0 min 1 sec 

Maximum memory used throughout the entire SCF-calculation: 41.7 MB


-------------------------------------------------------------------------------
                          DFT DISPERSION CORRECTION                            
                                                                               
                              DFTD3 V3.1  Rev 1                                
                          USING Becke-Johnson damping                          
-------------------------------------------------------------------------------
-------------------------   ----------------
Dispersion correction           -0.000726849
-------------------------   ----------------


-------------------------   --------------------
FINAL SINGLE POINT ENERGY      -112.671263556197
-------------------------   --------------------

------------------------------------------------------------------------------
                         ORCA SCF GRADIENT CALCULATION
------------------------------------------------------------------------------

 ... reading COSX grid (gridx3)
Gradient of the Kohn-Sham DFT energy:
Kohn-Sham wavefunction type      ... UKS
Hartree-Fock exchange scaling    ...    0.200
Number of operators              ...    2
Number of atoms                  ...    2
Basis set dimensions             ...   26
Integral neglect threshold       ... 2.5e-11
Integral primitive cutoff        ... 2.5e-12
SHARK Integral package           ... ON

Nuc. rep. gradient       (SHARK) ... done (  0.0 sec)
HCore & Overlap gradient (SHARK) ... done (  0.0 sec)
RI-J gradient            (SHARK) ... done (  0.0 sec)
COSX-gradient                    ... done (  0.1 sec)
Exchange-correlation gradient    ... done
Dispersion correction            ... done

------------------
CARTESIAN GRADIENT
------------------

   1   C   :   -0.212320616   -0.000000000   -0.000000000
   2   O   :    0.212323113   -0.000000011    0.000000000

Difference to translation invariance:
           :    0.0000024968   -0.0000000114    0.0000000002

Difference to rotation invariance:
           :    0.0000000000   -0.0000000006   -0.0000000302

Norm of the cartesian gradient     ...    0.3002684601
RMS gradient                       ...    0.1225840855
MAX gradient                       ...    0.2123231128

-------
TIMINGS
-------

Total SCF gradient time            ...        0.329 sec

One electron gradient       ....       0.001 sec  (  0.2%)
RI-J Coulomb gradient       ....       0.015 sec  (  4.6%)
COSX gradient               ....       0.118 sec  ( 36.0%)
XC gradient                 ....       0.143 sec  ( 43.5%)

Maximum memory used throughout the entire SCFGRAD-calculation: 31.8 MB
------------------------------------------------------------------------------
                         ORCA GEOMETRY RELAXATION STEP
------------------------------------------------------------------------------

Reading the OPT-File                    .... done
Getting information on internals        .... done
Copying old internal coords+grads       .... done
Making the new internal coordinates     .... (new redundants).... done
Validating the new internal coordinates .... (new redundants).... done
Calculating the B-matrix                .... done
Calculating the G,G- and P matrices     .... done
Transforming gradient to internals      .... done
Projecting the internal gradient        .... done
[...]
  19   0.0000       2.083032        56.6822 
  20   0.0000       2.150975        58.5310 
  21   0.0000       4.322660       117.6255 
  22   0.0000       4.322660       117.6255 
  23   0.0000       4.446139       120.9856 
  24   0.0000      22.698631       617.6611 
  25   0.0000      49.260970      1340.4591 

                 SPIN DOWN ORBITALS
  NO   OCC          E(Eh)            E(eV) 
   0   1.0000     -19.668844      -535.2164 
   1   1.0000     -10.788336      -293.5656 
   2   1.0000      -1.602451       -43.6049 
   3   1.0000      -0.929789       -25.3009 
   4   1.0000      -0.865431       -23.5496 
   5   1.0000      -0.865431       -23.5496 
   6   0.0000      -0.649971       -17.6866 
   7   0.0000      -0.409518       -11.1436 
   8   0.0000      -0.409518       -11.1436 
   9   0.0000      -0.075089        -2.0433 
  10   0.0000       0.074908         2.0384 
  11   0.0000       0.074908         2.0384 
  12   0.0000       0.123149         3.3511 
  13   0.0000       0.315122         8.5749 
  14   0.0000       0.437906        11.9160 
  15   0.0000       0.477006        12.9800 
  16   0.0000       0.477006        12.9800 
  17   0.0000       0.976188        26.5634 
  18   0.0000       2.113598        57.5139 
  19   0.0000       2.113598        57.5139 
  20   0.0000       2.223648        60.5085 
  21   0.0000       4.312106       117.3384 
  22   0.0000       4.312106       117.3384 
  23   0.0000       4.461721       121.4096 
  24   0.0000      22.728453       618.4726 
  25   0.0000      49.259358      1340.4153 

                    ********************************
                    * MULLIKEN POPULATION ANALYSIS *
                    ********************************

--------------------------------------------
MULLIKEN ATOMIC CHARGES AND SPIN POPULATIONS
--------------------------------------------
   0 C :    0.892435    1.113133
   1 O :    0.107565   -0.113133
Sum of atomic charges         :    1.0000000
Sum of atomic spin populations:    1.0000000

-----------------------------------------------------
MULLIKEN REDUCED ORBITAL CHARGES AND SPIN POPULATIONS
-----------------------------------------------------
CHARGE
  0 C s       :     3.196144  s :     3.196144
      pz      :     0.636789  p :     1.911420
      px      :     0.637843
      py      :     0.636789
  1 O s       :     3.941080  s :     3.941080
      pz      :     1.363211  p :     3.951355
      px      :     1.224932
      py      :     1.363211

SPIN
  0 C s       :     0.509718  s :     0.509718
      pz      :     0.099462  p :     0.603415
      px      :     0.404490
      py      :     0.099462
  1 O s       :    -0.010815  s :    -0.010815
      pz      :    -0.099462  p :    -0.102318
      px      :     0.096607
      py      :    -0.099462


                     *******************************
                     * LOEWDIN POPULATION ANALYSIS *
                     *******************************

-------------------------------------------
LOEWDIN ATOMIC CHARGES AND SPIN POPULATIONS
-------------------------------------------
   0 C :    0.733883    1.068945
   1 O :    0.266117   -0.068945

----------------------------------------------------
LOEWDIN REDUCED ORBITAL CHARGES AND SPIN POPULATIONS
----------------------------------------------------
CHARGE
  0 C s       :     3.067480  s :     3.067480
      pz      :     0.662307  p :     2.198637
      px      :     0.874023
      py      :     0.662307
  1 O s       :     3.615856  s :     3.615856
      pz      :     1.337693  p :     4.118027
      px      :     1.442641
      py      :     1.337693

SPIN
  0 C s       :     0.455202  s :     0.455202
      pz      :     0.092685  p :     0.613742
      px      :     0.428371
      py      :     0.092685
  1 O s       :     0.014868  s :     0.014868
      pz      :    -0.092685  p :    -0.083812
      px      :     0.101559
      py      :    -0.092685


                      *****************************
                      * MAYER POPULATION ANALYSIS *
                      *****************************

  NA   - Mulliken gross atomic population
  ZA   - Total nuclear charge
  QA   - Mulliken gross atomic charge
  VA   - Mayer's total valence
  BVA  - Mayer's bonded valence
  FA   - Mayer's free valence

  ATOM       NA         ZA         QA         VA         BVA        FA
  0 C      5.1076     6.0000     0.8924     3.4508     2.5996     0.8513
  1 O      7.8924     8.0000     0.1076     2.6279     2.5996     0.0283

  Mayer bond orders larger than 0.100000
B(  0-C ,  1-O ) :   2.5996 

-------
TIMINGS
-------

Total SCF time: 0 days 0 hours 0 min 1 sec 

Total time                  ....       1.148 sec
Sum of individual times     ....       1.119 sec  ( 97.5%)

Fock matrix formation       ....       0.763 sec  ( 66.5%)
  Split-RI-J                ....       0.051 sec  (  6.7% of F)
  Chain of spheres X        ....       0.437 sec  ( 57.2% of F)
  XC integration            ....       0.276 sec  ( 36.1% of F)
    Basis function eval.    ....       0.072 sec  ( 26.0% of XC)
    Density eval.           ....       0.081 sec  ( 29.5% of XC)
    XC-Functional eval.     ....       0.067 sec  ( 24.4% of XC)
    XC-Potential eval.      ....       0.035 sec  ( 12.6% of XC)
Diagonalization             ....       0.001 sec  (  0.1%)
Density matrix formation    ....       0.000 sec  (  0.0%)
Population analysis         ....       0.002 sec  (  0.2%)
Initial guess               ....       0.000 sec  (  0.0%)
Orbital Transformation      ....       0.000 sec  (  0.0%)
Orbital Orthonormalization  ....       0.000 sec  (  0.0%)
DIIS solution               ....       0.003 sec  (  0.3%)
Grid generation             ....       0.349 sec  ( 30.4%)

Maximum memory used throughout the entire SCF-calculation: 41.7 MB


-------------------------------------------------------------------------------
                          DFT DISPERSION CORRECTION                            
                                                                               
                              DFTD3 V3.1  Rev 1                                
                          USING Becke-Johnson damping                          
-------------------------------------------------------------------------------
The B3LYP functional is recognized
Active option DFTDOPT                   ...         4   

molecular C6(AA) [au] = 100.821903 


            DFT-D V3
 parameters
 s6 scaling factor         :     1.0000 
 a1 scaling factor         :     0.3981 
 s8 scaling factor         :     1.9889 
 a2 scaling factor         :     4.4211 
 ad hoc parameters k1-k3   :    16.0000     1.3333    -4.0000 

 Edisp/kcal,au: -0.456666299303  -0.000727743993 
 E6   /kcal   :  -0.209215389 
 E8   /kcal   :  -0.247450911 
 % E8         :  54.186374418 

-------------------------   ----------------
Dispersion correction           -0.000727744
-------------------------   ----------------


-------------------------   --------------------
FINAL SINGLE POINT ENERGY      -112.726363236753
-------------------------   --------------------

                                *** OPTIMIZATION RUN DONE ***

                            ***************************************
                            *     ORCA property calculations      *
                            ***************************************

                                    ---------------------
                                    Active property flags
                                    ---------------------
   (+) Dipole Moment


------------------------------------------------------------------------------
                       ORCA ELECTRIC PROPERTIES CALCULATION
------------------------------------------------------------------------------

Dipole Moment Calculation                       ... on
Quadrupole Moment Calculation                   ... off
Polarizability Calculation                      ... off
GBWName                                         ... co_p.gbw
Electron density                                ... co_p.scfp
The origin for moment calculation is the CENTER OF MASS  = ( 1.569665,  0.000000  0.000000)

-------------
DIPOLE MOMENT
-------------
                                X             Y             Z
Electronic contribution:     -1.12238      -0.00000       0.00000
Nuclear contribution   :      0.00718       0.00000       0.00000
                        -----------------------------------------
Total Dipole Moment    :     -1.11519      -0.00000       0.00000
                        -----------------------------------------
Magnitude (a.u.)       :      1.11519
Magnitude (Debye)      :      2.83460



--------------------
Rotational spectrum 
--------------------
 
Rotational constants in cm-1:     0.000000     1.915405     1.915405 
Rotational constants in MHz :     0.000000 57422.396921 57422.396921 

 Dipole components along the rotational axes: 
x,y,z [a.u.] :    -1.115195    -0.000000     0.000000 
x,y,z [Debye]:    -2.834599    -0.000000     0.000000 

 

-------------------------------------------------------------------------------
                               ORCA SCF HESSIAN
-------------------------------------------------------------------------------

                   --------- SHARK INITIALIZATION DONE ---------

Hessian of the Kohn-Sham DFT energy:
Kohn-Sham wavefunction type                      ... UKS
Hartree-Fock exchange scaling                    ...    0.200
Number of operators                              ...    2
Number of atoms                                  ...    2
Basis set dimensions                             ...   26
Integral neglect threshold                       ... 2.5e-11
Integral primitive cutoff                        ... 2.5e-12

Setting up DFT Hessian calculations              ... 

HESS GRID
---------

General Integration Accuracy     IntAcc      ... 4.959
Radial Grid Type                 RadialGrid  ... OptM3 with GC (2021)
Angular Grid (max. ang.)         AngularGrid ... 7 (Lebedev-770)
Angular grid pruning method      GridPruning ... 4 (adaptive)
Weight generation scheme         WeightScheme... Becke
Basis function cutoff            BFCut       ... 1.0000e-11
Integration weight cutoff        WCut        ... 1.0000e-14
Angular grids for H and He will be reduced by one unit
Partially contracted basis set               ... off
Rotationally invariant grid construction     ... off

Total number of grid points                  ...    41000
Total number of batches                      ...      642
Average number of points per batch           ...       63
Average number of grid points per atom       ...    20500

Building densities                               ... done   (      0.0 sec)
Calculating rho(r) on the grid                   ... done   (      0.0 sec)
Building xc-kernel on the grid                   ... done   (      0.0 sec)
                                                     done   (      0.6 sec)

Nuclear repulsion Hessian  (SHARK)               ... done   (      0.0 sec)

----------------------------------------------
Forming right-hand sides of CP-SCF equations     ...
----------------------------------------------
One electron integral derivatives  (SHARK)       ... done   (      0.0 sec)
Transforming the overlap derivative matrices     ... done   (      0.0 sec)
Making the Q(x) pseudodensities                  ... done   (      0.0 sec)
Adding the E*S(x)*S(y) terms to the Hessian      ... done   (      0.0 sec)
Calculating energy weighted overlap derivatives  ... done   (      0.0 sec)
Two electron integral derivatives (SHARK-RI)     ... done   (      0.0 sec)
Exchange-correlation integral derivatives        ... done   (      0.8 sec)
tr(F(y)Q(x)) contribution to the Hessian         ... done   (      0.0 sec)
Response fock operator R(S(x)) (SHARK-RIJCOSX)   ... done   (      0.2 sec)
XC Response fock operator R(S(x))                ... done   (      0.2 sec)
tr(F(y)S(x)) contribution to the Hessian         ... done   (      0.0 sec)
Transforming and finalizing RHSs                 ... done   (      0.0 sec)

----------------------------------------------
Solving the CP-SCF equations (RIJCOSX)           ...
----------------------------------------------
     CP-SCF ITERATION   0:   8.4414e-01 (   0.1 sec   0/  6 done)
     CP-SCF ITERATION   1:   1.2148e-01 (   0.1 sec   0/  6 done)
     CP-SCF ITERATION   2:   2.2717e-02 (   0.1 sec   0/  6 done)
     CP-SCF ITERATION   3:   2.6440e-03 (   0.1 sec   0/  6 done)
     CP-SCF ITERATION   4:   1.2866e-03 (   0.1 sec   0/  6 done)
     CP-SCF ITERATION   5:   2.5674e-04 (   0.1 sec   4/  6 done)
     CP-SCF ITERATION   6:   1.6014e-05 (   0.1 sec   6/  6 done)
                    *** THE CP-SCF HAS CONVERGED ***

                                                 ... done   (      0.6 sec)
Forming perturbed density Hessian contributions  ... done   (      0.0 sec)
2nd integral derivative contribs (SHARK-RI)      ... done   (      0.1 sec)
Exchange-correlation Hessian                     ... done   (      1.0 sec)
Dispersion correction in the Hessian             ... done   (      0.2 sec)
Dipole derivatives                               ... (center of mass:  1.569665,  0.000000  0.000000)done   (      0.0 sec)

Total SCF Hessian time: 0 days 0 hours 0 min 3 sec 

Writing the Hessian file to the disk             ... done


Maximum memory used throughout the entire SCFHESS-calculation: 49.0 MB

-----------------------
VIBRATIONAL FREQUENCIES
-----------------------

Scaling factor for frequencies =  1.000000000  (already applied!)

   0:         0.00 cm**-1
   1:         0.00 cm**-1
   2:         0.00 cm**-1
   3:         0.00 cm**-1
   4:         0.00 cm**-1
   5:      2120.81 cm**-1


------------
NORMAL MODES
------------

These modes are the Cartesian displacements weighted by the diagonal matrix
M(i,i)=1/sqrt(m[i]) where m[i] is the mass of the displaced atom
Thus, these vectors are normalized but *not* orthogonal

                  0          1          2          3          4          5    
      0       0.000000   0.000000   0.000000   0.000000   0.000000  -0.799718
      1       0.000000   0.000000   0.000000   0.000000   0.000000   0.000000
      2       0.000000   0.000000   0.000000   0.000000   0.000000  -0.000000
      3       0.000000   0.000000   0.000000   0.000000   0.000000   0.600376
      4       0.000000   0.000000   0.000000   0.000000   0.000000   0.000000
      5       0.000000   0.000000   0.000000   0.000000   0.000000   0.000000


-----------
IR SPECTRUM
-----------

 Mode   freq       eps      Int      T**2         TX        TY        TZ
       cm**-1   L/(mol*cm) km/mol    a.u.
----------------------------------------------------------------------------
  5:   2120.81   0.002530   12.78  0.000372  (-0.019293  0.000000  0.000000)

* The epsilon (eps) is given for a Dirac delta lineshape.
** The dipole moment derivative (T) already includes vibrational overlap.

The first frequency considered to be a vibration is 5
The total number of vibrations considered is 1


--------------------------
THERMOCHEMISTRY AT 298.15K
--------------------------

Temperature         ... 298.15 K
Pressure            ... 1.00 atm
Total Mass          ... 28.01 AMU
The molecule is recognized as being linear

Throughout the following assumptions are being made:
  (1) The electronic state is orbitally nondegenerate
      but the spin degeneracy is treated
  (2) There are no thermally accessible electronically excited states
  (3) Hindered rotations indicated by low frequency modes are not
      treated as such but are treated as vibrations and this may
      cause some error
  (4) All equations used are the standard statistical mechanics
      equations for an ideal gas
  (5) All vibrations are strictly harmonic

freq.    2120.81  E(vib)   ...       0.00 

------------
INNER ENERGY
------------

The inner energy is: U= E(el) + E(ZPE) + E(vib) + E(rot) + E(trans)
    E(el)   - is the total energy from the electronic structure calculation
              = E(kin-el) + E(nuc-el) + E(el-el) + E(nuc-nuc)
    E(ZPE)  - the the zero temperature vibrational energy from the frequency calculation
    E(vib)  - the the finite temperature correction to E(ZPE) due to population
              of excited vibrational states
    E(rot)  - is the rotational thermal energy
    E(trans)- is the translational thermal energy

Summary of contributions to the inner energy U:
Electronic energy                ...   -112.72636324 Eh
Zero point energy                ...      0.00483157 Eh       3.03 kcal/mol
Thermal vibrational correction   ...      0.00000035 Eh       0.00 kcal/mol
Thermal rotational correction    ...      0.00094418 Eh       0.59 kcal/mol
Thermal translational correction ...      0.00141627 Eh       0.89 kcal/mol
-----------------------------------------------------------------------
Total thermal energy                   -112.71917087 Eh


Summary of corrections to the electronic energy:
(perhaps to be used in another calculation)
Total thermal correction                  0.00236080 Eh       1.48 kcal/mol
Non-thermal (ZPE) correction              0.00483157 Eh       3.03 kcal/mol
-----------------------------------------------------------------------
Total correction                          0.00719237 Eh       4.51 kcal/mol


--------
ENTHALPY
--------

The enthalpy is H = U + kB*T
                kB is Boltzmann's constant
Total free energy                 ...   -112.71917087 Eh 
Thermal Enthalpy correction       ...      0.00094421 Eh       0.59 kcal/mol
-----------------------------------------------------------------------
Total Enthalpy                    ...   -112.71822666 Eh


Note: Rotational entropy computed according to Herzberg 
Infrared and Raman Spectra, Chapter V,1, Van Nostrand Reinhold, 1945 
Point Group:  Cinfv, Symmetry Number:   1  
Rotational constants in cm-1:     0.000000     1.915405     1.915405 

Vibrational entropy computed according to the QRRHO of S. Grimme
Chem.Eur.J. 2012 18 9955


-------
ENTROPY
-------

The entropy contributions are T*S = T*(S(el)+S(vib)+S(rot)+S(trans))
     S(el)   - electronic entropy
     S(vib)  - vibrational entropy
     S(rot)  - rotational entropy
     S(trans)- translational entropy
The entropies will be listed as multiplied by the temperature to get
units of energy

Electronic entropy                ...      0.00065446 Eh      0.41 kcal/mol
Vibrational entropy               ...      0.00000038 Eh      0.00 kcal/mol
Rotational entropy                ...      0.00536661 Eh      3.37 kcal/mol
Translational entropy             ...      0.01706888 Eh     10.71 kcal/mol
-----------------------------------------------------------------------
Final entropy term                ...      0.02309033 Eh     14.49 kcal/mol


-------------------
GIBBS FREE ENERGY
-------------------

The Gibbs free energy is G = H - T*S

Total enthalpy                    ...   -112.71822666 Eh 
Total entropy correction          ...     -0.02309033 Eh    -14.49 kcal/mol
-----------------------------------------------------------------------
Final Gibbs free energy         ...   -112.74131699 Eh

For completeness - the Gibbs free energy minus the electronic energy
G-E(el)                           ...     -0.01495375 Eh     -9.38 kcal/mol


Timings for individual modules:

Sum of individual times         ...       20.847 sec (=   0.347 min)
GTO integral calculation        ...        0.386 sec (=   0.006 min)   1.9 %
SCF iterations                  ...       13.778 sec (=   0.230 min)  66.1 %
SCF Gradient evaluation         ...        2.545 sec (=   0.042 min)  12.2 %
Geometry relaxation             ...        0.207 sec (=   0.003 min)   1.0 %
Analytical frequency calculation...        3.932 sec (=   0.066 min)  18.9 %
                             ****ORCA TERMINATED NORMALLY****
TOTAL RUN TIME: 0 days 0 hours 0 minutes 21 seconds 248 msec
