
                                 *****************
                                 * O   R   C   A *
                                 *****************

                                            #,                                       
                                            ###                                      
                                            ####                                     
                                            #####                                    
                                            ######                                   
                                           ########,                                 
                                     ,,################,,,,,                         
                               ,,#################################,,                 
                          ,,##########################################,,             
                       ,#########################################, ''#####,          
                    ,#############################################,,   '####,        
                  ,##################################################,,,,####,       
                ,###########''''           ''''###############################       
              ,#####''   ,,,,##########,,,,          '''####'''          '####       
            ,##' ,,,,###########################,,,                        '##       
           ' ,,###''''                  '''############,,,                           
         ,,##''                                '''############,,,,        ,,,,,,###''
      ,#''                                            '''#######################'''  
     '                                                          ''''####''''         
             ,#######,   #######,   ,#######,      ##                                
            ,#'     '#,  ##    ##  ,#'     '#,    #''#        ######   ,####,        
            ##       ##  ##   ,#'  ##            #'  '#       #        #'  '#        
            ##       ##  #######   ##           ,######,      #####,   #    #        
            '#,     ,#'  ##    ##  '#,     ,#' ,#      #,         ##   #,  ,#        
             '#######'   ##     ##  '#######'  #'      '#     #####' # '####'        



                  #######################################################
                  #                        -***-                        #
                  #          Department of theory and spectroscopy      #
                  #    Directorship and core code : Frank Neese         #
                  #        Max Planck Institute fuer Kohlenforschung    #
                  #                Kaiser Wilhelm Platz 1               #
                  #                 D-45470 Muelheim/Ruhr               #
                  #                      Germany                        #
                  #                                                     #
                  #                  All rights reserved                #
                  #                        -***-                        #
                  #######################################################


                         Program Version 5.0.3 -  RELEASE  -


 With contributions from (in alphabetic order):
   Daniel Aravena         : Magnetic Suceptibility
   Michael Atanasov       : Ab Initio Ligand Field Theory (pilot matlab implementation)
   Alexander A. Auer      : GIAO ZORA, VPT2 properties, NMR spectrum
   Ute Becker             : Parallelization
   Giovanni Bistoni       : ED, misc. LED, open-shell LED, HFLD
   Martin Brehm           : Molecular dynamics
   Dmytro Bykov           : SCF Hessian
   Vijay G. Chilkuri      : MRCI spin determinant printing, contributions to CSF-ICE
   Dipayan Datta          : RHF DLPNO-CCSD density
   Achintya Kumar Dutta   : EOM-CC, STEOM-CC
   Dmitry Ganyushin       : Spin-Orbit,Spin-Spin,Magnetic field MRCI
   Miquel Garcia          : C-PCM and meta-GGA Hessian, CC/C-PCM, Gaussian charge scheme
   Yang Guo               : DLPNO-NEVPT2, F12-NEVPT2, CIM, IAO-localization
   Andreas Hansen         : Spin unrestricted coupled pair/coupled cluster methods
   Benjamin Helmich-Paris : MC-RPA, TRAH-SCF, COSX integrals
   Lee Huntington         : MR-EOM, pCC
   Robert Izsak           : Overlap fitted RIJCOSX, COSX-SCS-MP3, EOM
   Marcus Kettner         : VPT2
   Christian Kollmar      : KDIIS, OOCD, Brueckner-CCSD(T), CCSD density, CASPT2, CASPT2-K
   Simone Kossmann        : Meta GGA functionals, TD-DFT gradient, OOMP2, MP2 Hessian
   Martin Krupicka        : Initial AUTO-CI
   Lucas Lang             : DCDCAS
   Marvin Lechner         : AUTO-CI (C++ implementation), FIC-MRCC
   Dagmar Lenk            : GEPOL surface, SMD
   Dimitrios Liakos       : Extrapolation schemes; Compound Job, initial MDCI parallelization
   Dimitrios Manganas     : Further ROCIS development; embedding schemes
   Dimitrios Pantazis     : SARC Basis sets
   Anastasios Papadopoulos: AUTO-CI, single reference methods and gradients
   Taras Petrenko         : DFT Hessian,TD-DFT gradient, ASA, ECA, R-Raman, ABS, FL, XAS/XES, NRVS
   Peter Pinski           : DLPNO-MP2, DLPNO-MP2 Gradient
   Christoph Reimann      : Effective Core Potentials
   Marius Retegan         : Local ZFS, SOC
   Christoph Riplinger    : Optimizer, TS searches, QM/MM, DLPNO-CCSD(T), (RO)-DLPNO pert. Triples
   Tobias Risthaus        : Range-separated hybrids, TD-DFT gradient, RPA, STAB
   Michael Roemelt        : Original ROCIS implementation
   Masaaki Saitow         : Open-shell DLPNO-CCSD energy and density
   Barbara Sandhoefer     : DKH picture change effects
   Avijit Sen             : IP-ROCIS
   Kantharuban Sivalingam : CASSCF convergence, NEVPT2, FIC-MRCI
   Bernardo de Souza      : ESD, SOC TD-DFT
   Georgi Stoychev        : AutoAux, RI-MP2 NMR, DLPNO-MP2 response
   Willem Van den Heuvel  : Paramagnetic NMR
   Boris Wezisla          : Elementary symmetry handling
   Frank Wennmohs         : Technical directorship


 We gratefully acknowledge several colleagues who have allowed us to
 interface, adapt or use parts of their codes:
   Stefan Grimme, W. Hujo, H. Kruse, P. Pracht,  : VdW corrections, initial TS optimization,
                  C. Bannwarth, S. Ehlert          DFT functionals, gCP, sTDA/sTD-DF
   Ed Valeev, F. Pavosevic, A. Kumar             : LibInt (2-el integral package), F12 methods
   Garnet Chan, S. Sharma, J. Yang, R. Olivares  : DMRG
   Ulf Ekstrom                                   : XCFun DFT Library
   Mihaly Kallay                                 : mrcc  (arbitrary order and MRCC methods)
   Jiri Pittner, Ondrej Demel                    : Mk-CCSD
   Frank Weinhold                                : gennbo (NPA and NBO analysis)
   Christopher J. Cramer and Donald G. Truhlar   : smd solvation model
   Lars Goerigk                                  : TD-DFT with DH, B97 family of functionals
   V. Asgeirsson, H. Jonsson                     : NEB implementation
   FAccTs GmbH                                   : IRC, NEB, NEB-TS, DLPNO-Multilevel, CI-OPT
                                                   MM, QMMM, 2- and 3-layer-ONIOM, Crystal-QMMM,
                                                   LR-CPCM, SF, NACMEs, symmetry and pop. for TD-DFT,
                                                   nearIR, NL-DFT gradient (VV10), updates on ESD,
                                                   ML-optimized integration grids
   S Lehtola, MJT Oliveira, MAL Marques          : LibXC Library
   Liviu Ungur et al                             : ANISO software


 Your calculation uses the libint2 library for the computation of 2-el integrals
 For citations please refer to: http://libint.valeyev.net

 Your ORCA version has been built with support for libXC version: 5.1.0
 For citations please refer to: https://tddft.org/programs/libxc/

 This ORCA versions uses:
   CBLAS   interface :  Fast vector & matrix operations
   LAPACKE interface :  Fast linear algebra routines
   SCALAPACK package :  Parallel linear algebra routines
   Shared memory     :  Shared parallel matrices
   BLAS/LAPACK       :  OpenBLAS 0.3.19 NO_AFFINITY VORTEX SINGLE_THREADED
        Core in use  :  VORTEX
   Copyright (c) 2011-2014, The OpenBLAS Project


Your calculation utilizes the atom-pairwise dispersion correction
with the Becke-Johnson damping scheme (D3BJ)
Cite in your paper:
S.Grimme, S.Ehrlich, L.Goerigk, J Comput Chem, (2011), 32, 1456–1465 
S.Grimme, J.Antony, S.Ehrlich and H.Krieg, J.Chem.Phys., 132, (2010), 154104 
   

================================================================================

----- Orbital basis set information -----
Your calculation utilizes the basis: 6-311G
   H, Li - Ne  : R. Krishnan, J. S. Binkley, R. Seeger and J. A. Pople, J. Chem. Phys. 72, 650 (1980).
   Na - Ar     : A. D. McLean and G. S. Chandler J. Chem. Phys. 72, 5639, (1980).
   K  - Ca     : J.-P. Blaudeau, M. P. McGrath, L. A. Curtiss and L. Radom, J. Chem. Phys. 107, 5016 (1997).
   Ga - Kr     : L. A. Curtiss, M. P. McGrath, J.-P. Blandeau, N. E. Davis, R. C. Binning and L. Radom, J. Chem. Phys. 103, 6104 (1995).

----- AuxJ basis set information -----
Your calculation utilizes the AutoAux generation procedure.
  G. L. Stoychev, A. A. Auer, F. Neese, J. Chem. Theory Comput. 13, 554 (2017)

----- AuxC basis set information -----
Your calculation utilizes the AutoAux generation procedure.
  G. L. Stoychev, A. A. Auer, F. Neese, J. Chem. Theory Comput. 13, 554 (2017)

----- AuxJK basis set information -----
Your calculation utilizes the AutoAux generation procedure.
  G. L. Stoychev, A. A. Auer, F. Neese, J. Chem. Theory Comput. 13, 554 (2017)

================================================================================
                                        WARNINGS
                       Please study these warnings very carefully!
================================================================================


WARNING: Geometry Optimization
  ===> : Switching off AutoStart
         For restart on a previous wavefunction, please use MOREAD

INFO   : the flag for use of the SHARK integral package has been found!

================================================================================
                                       INPUT FILE
================================================================================
NAME = eg_0.inp
|  1> !B3LYP D3BJ 6-311G
|  2> !RIJCOSX AutoAux printbasis
|  3> !Opt Freq
|  4> !DEFGRID3 TightSCF
|  5> *xyz 0 1
|  6> C       -1.815527635      0.000000000     -1.701852812
|  7> H       -1.815527635      1.019690000     -2.101108812
|  8> H       -0.932449635     -0.509845000     -2.101108811
|  9> C       -1.815527635      0.000000000     -0.171864812
| 10> H       -2.698605635      0.509845000      0.227391188
| 11> H       -1.815527635     -1.019690000      0.227391188
| 12> O       -2.976763524     -0.670439431     -2.226869171
| 13> H       -3.617938706     -0.008421754     -2.516756404
| 14> O       -0.654291745      0.670439431      0.353151548
| 15> H       -0.788200812      1.625327153      0.292608766
| 16> **                         ****END OF INPUT****
================================================================================

                       *****************************
                       * Geometry Optimization Run *
                       *****************************

Geometry optimization settings:
Update method            Update   .... BFGS
Choice of coordinates    CoordSys .... Z-matrix Internals
Initial Hessian          InHess   .... Almoef's Model

Convergence Tolerances:
Energy Change            TolE     ....  5.0000e-06 Eh
Max. Gradient            TolMAXG  ....  3.0000e-04 Eh/bohr
RMS Gradient             TolRMSG  ....  1.0000e-04 Eh/bohr
Max. Displacement        TolMAXD  ....  4.0000e-03 bohr
RMS Displacement         TolRMSD  ....  2.0000e-03 bohr
Strict Convergence                ....  False
------------------------------------------------------------------------------
                        ORCA OPTIMIZATION COORDINATE SETUP
------------------------------------------------------------------------------

The optimization will be done in new redundant internal coordinates
Making redundant internal coordinates   ...  (new redundants) done
Evaluating the initial hessian          ...  (Almloef) done
Evaluating the coordinates              ...  done
Calculating the B-matrix                .... done
Calculating the G-matrix                .... done
Diagonalizing the G-matrix              .... done
The first mode is                       ....   14
The number of degrees of freedom        ....   24

    -----------------------------------------------------------------
                    Redundant Internal Coordinates


    -----------------------------------------------------------------
         Definition                    Initial Value    Approx d2E/dq
    -----------------------------------------------------------------
      1. B(H   1,C   0)                  1.0951         0.353458   
      2. B(H   2,C   0)                  1.0951         0.353458   
      3. B(C   3,C   0)                  1.5300         0.373591   
      4. B(H   4,C   3)                  1.0951         0.353458   
      5. B(H   5,C   3)                  1.0951         0.353458   
      6. B(O   6,C   0)                  1.4400         0.465697   
      7. B(H   7,O   6)                  0.9661         0.508378   
      8. B(O   8,C   3)                  1.4400         0.465697   
      9. B(H   9,O   8)                  0.9661         0.508378   
     10. A(H   1,C   0,C   3)          111.3827         0.323332   
     11. A(H   2,C   0,O   6)          107.4940         0.333289   
     12. A(H   1,C   0,O   6)          107.4940         0.333289   
     13. A(H   1,C   0,H   2)          107.4940         0.289146   
     14. A(C   3,C   0,O   6)          111.3826         0.375016   
     15. A(H   2,C   0,C   3)          111.3826         0.323332   
     16. A(H   4,C   3,O   8)          107.4940         0.333289   
     17. A(H   4,C   3,H   5)          107.4940         0.289146   
     18. A(C   0,C   3,O   8)          111.3826         0.375016   
     19. A(C   0,C   3,H   5)          111.3827         0.323332   
     20. A(C   0,C   3,H   4)          111.3826         0.323332   
     21. A(H   5,C   3,O   8)          107.4940         0.333289   
     22. A(C   0,O   6,H   7)          108.9987         0.351145   
     23. A(C   3,O   8,H   9)          108.9987         0.351145   
     24. D(H   4,C   3,C   0,O   6)    -60.0000         0.011145   
     25. D(H   4,C   3,C   0,H   2)    180.0000         0.011145   
     26. D(H   5,C   3,C   0,H   1)    180.0000         0.011145   
     27. D(H   5,C   3,C   0,O   6)     60.0000         0.011145   
     28. D(O   8,C   3,C   0,H   1)    -60.0000         0.011145   
     29. D(H   4,C   3,C   0,H   1)     60.0000         0.011145   
     30. D(O   8,C   3,C   0,H   2)     60.0000         0.011145   
     31. D(O   8,C   3,C   0,O   6)    180.0000         0.011145   
     32. D(H   5,C   3,C   0,H   2)    -60.0000         0.011145   
     33. D(H   7,O   6,C   0,C   3)    101.8871         0.017090   
     34. D(H   7,O   6,C   0,H   2)   -135.8406         0.017090   
     35. D(H   7,O   6,C   0,H   1)    -20.3851         0.017090   
     36. D(H   9,O   8,C   3,H   5)   -159.6149         0.017090   
     37. D(H   9,O   8,C   3,H   4)    -44.1594         0.017090   
     38. D(H   9,O   8,C   3,C   0)     78.1129         0.017090   
    -----------------------------------------------------------------

Number of atoms                         .... 10
Number of degrees of freedom            .... 38

         *************************************************************
         *                GEOMETRY OPTIMIZATION CYCLE   1            *
         *************************************************************
---------------------------------
CARTESIAN COORDINATES (ANGSTROEM)
---------------------------------
  C     -1.815528    0.000000   -1.701853
  H     -1.815528    1.019690   -2.101109
  H     -0.932450   -0.509845   -2.101109
  C     -1.815528    0.000000   -0.171865
  H     -2.698606    0.509845    0.227391
  H     -1.815528   -1.019690    0.227391
  O     -2.976764   -0.670439   -2.226869
  H     -3.617939   -0.008422   -2.516756
  O     -0.654292    0.670439    0.353152
  H     -0.788201    1.625327    0.292609

----------------------------
CARTESIAN COORDINATES (A.U.)
----------------------------
  NO LB      ZA    FRAG     MASS         X           Y           Z
   0 C     6.0000    0    12.011   -3.430850    0.000000   -3.216036
   1 H     1.0000    0     1.008   -3.430850    1.926935   -3.970520
   2 H     1.0000    0     1.008   -1.762074   -0.963467   -3.970520
   3 C     6.0000    0    12.011   -3.430850    0.000000   -0.324777
   4 H     1.0000    0     1.008   -5.099626    0.963467    0.429707
   5 H     1.0000    0     1.008   -3.430850   -1.926935    0.429707
   6 O     8.0000    0    15.999   -5.625268   -1.266947   -4.208173
   7 H     1.0000    0     1.008   -6.836913   -0.015915   -4.755980
   8 O     8.0000    0    15.999   -1.236432    1.266947    0.667360
   9 H     1.0000    0     1.008   -1.489484    3.071423    0.552950

--------------------------------
INTERNAL COORDINATES (ANGSTROEM)
--------------------------------
 C      0   0   0     0.000000000000     0.00000000     0.00000000
 H      1   0   0     1.095067600487     0.00000000     0.00000000
 H      1   2   0     1.095068048500   107.49399117     0.00000000
 C      1   2   3     1.529988000000   111.38265079   122.27226296
 H      4   1   2     1.095068048865   111.38264160    60.00001562
 H      4   1   2     1.095067600487   111.38265079   180.00000000
 O      1   2   3     1.439999999222   107.49399114   244.54452597
 H      7   1   2     0.966130232696   108.99865134   339.61487484
 O      4   1   2     1.440000000393   111.38264163   299.99998436
 H      9   4   1     0.966130233614   108.99865122    78.11285639

---------------------------
INTERNAL COORDINATES (A.U.)
---------------------------
 C      0   0   0     0.000000000000     0.00000000     0.00000000
 H      1   0   0     2.069377863050     0.00000000     0.00000000
 H      1   2   0     2.069378709673   107.49399117     0.00000000
 C      1   2   3     2.891258308186   111.38265079   122.27226296
 H      4   1   2     2.069378710362   111.38264160    60.00001562
 H      4   1   2     2.069377863050   111.38265079   180.00000000
 O      1   2   3     2.721205631376   107.49399114   244.54452597
 H      7   1   2     1.825721549497   108.99865134   339.61487484
 O      4   1   2     2.721205633589   111.38264163   299.99998436
 H      9   4   1     1.825721551232   108.99865122    78.11285639

---------------------
BASIS SET INFORMATION
---------------------
There are 3 groups of distinct atoms

 Group   1 Type C   : 11s5p contracted to 4s3p pattern {6311/311}
 Group   2 Type H   : 5s contracted to 3s pattern {311}
 Group   3 Type O   : 11s5p contracted to 4s3p pattern {6311/311}

Atom   0C    basis set group =>   1
Atom   1H    basis set group =>   2
Atom   2H    basis set group =>   2
Atom   3C    basis set group =>   1
Atom   4H    basis set group =>   2
Atom   5H    basis set group =>   2
Atom   6O    basis set group =>   3
Atom   7H    basis set group =>   2
Atom   8O    basis set group =>   3
Atom   9H    basis set group =>   2

-------------------------
BASIS SET IN INPUT FORMAT
-------------------------

 # Basis set for element : H 
 NewGTO H 
 S 3 
   1      33.8650000000      0.0254938145
   2       5.0947900000      0.1903731086
   3       1.1587900000      0.8521614860
 S 1 
   1       0.3258400000      1.0000000000
 S 1 
   1       0.1027410000      1.0000000000
  end;

 # Basis set for element : C 
 NewGTO C 
 S 6 
   1    4563.2400000000      0.0019666502
   2     682.0240000000      0.0152306019
   3     154.9730000000      0.0761269097
   4      44.4553000000      0.2608010331
   5      13.0290000000      0.6164620782
   6       1.8277300000      0.2210060280
 S 3 
   1      20.9642000000      0.1146600807
   2       4.8033100000      0.9199996477
   3       1.4593300000     -0.0030306821
 P 3 
   1      20.9642000000      0.0402486927
   2       4.8033100000      0.2375939567
   3       1.4593300000      0.8158538515
 S 1 
   1       0.4834560000      1.0000000000
 P 1 
   1       0.4834560000      1.0000000000
 S 1 
   1       0.1455850000      1.0000000000
 P 1 
   1       0.1455850000      1.0000000000
  end;

 # Basis set for element : O 
 NewGTO O 
 S 6 
   1    8588.5000000000      0.0018951501
   2    1297.2300000000      0.0143859006
   3     299.2960000000      0.0707320031
   4      87.3771000000      0.2400010105
   5      25.6789000000      0.5947970261
   6       3.7400400000      0.2808020123
 S 3 
   1      42.1175000000      0.1138890124
   2       9.6283700000      0.9208111006
   3       2.8533200000     -0.0032744704
 P 3 
   1      42.1175000000      0.0365113974
   2       9.6283700000      0.2371529830
   3       2.8533200000      0.8197019412
 S 1 
   1       0.9056610000      1.0000000000
 P 1 
   1       0.9056610000      1.0000000000
 S 1 
   1       0.2556110000      1.0000000000
 P 1 
   1       0.2556110000      1.0000000000
  end;

---------------------------------
AUXILIARY/J BASIS SET INFORMATION
---------------------------------
There are 3 groups of distinct atoms

 Group   1 Type C   : 14s12p8d contracted to 14s12p8d pattern {11111111111111/111111111111/11111111}
 Group   2 Type H   : 11s2p contracted to 11s2p pattern {11111111111/11}
 Group   3 Type O   : 14s12p8d contracted to 14s12p8d pattern {11111111111111/111111111111/11111111}

Atom   0C    basis set group =>   1
Atom   1H    basis set group =>   2
Atom   2H    basis set group =>   2
Atom   3C    basis set group =>   1
Atom   4H    basis set group =>   2
Atom   5H    basis set group =>   2
Atom   6O    basis set group =>   3
Atom   7H    basis set group =>   2
Atom   8O    basis set group =>   3
Atom   9H    basis set group =>   2

-------------------------------------
AUXILIARY/J BASIS SET IN INPUT FORMAT
-------------------------------------

 # Auxiliary/J basis set for element : H 
 NewAuxJGTO H 
 S 1 
   1      73.3666746661      1.0000000000
 S 1 
   1      40.7592637034      1.0000000000
 S 1 
   1      22.6440353908      1.0000000000
 S 1 
   1      12.5800196615      1.0000000000
 S 1 
   1       6.9888998120      1.0000000000
 S 1 
   1       3.8827221178      1.0000000000
 S 1 
   1       2.1570678432      1.0000000000
 S 1 
   1       1.1983710240      1.0000000000
 S 1 
   1       0.6657616800      1.0000000000
 S 1 
   1       0.3698676000      1.0000000000
 S 1 
   1       0.2054820000      1.0000000000
 P 1 
   1       2.0300000000      1.0000000000
 P 1 
   1       0.5400000000      1.0000000000
  end;

 # Auxiliary/J basis set for element : C 
 NewAuxJGTO C 
 S 1 
   1     606.3022679937      1.0000000000
 S 1 
   1     336.8345933299      1.0000000000
 S 1 
   1     187.1303296277      1.0000000000
 S 1 
   1     103.9612942376      1.0000000000
 S 1 
   1      57.7562745765      1.0000000000
 S 1 
   1      32.0868192091      1.0000000000
 S 1 
   1      17.8260106717      1.0000000000
 S 1 
   1       9.9033392621      1.0000000000
 S 1 
   1       5.5018551456      1.0000000000
 S 1 
   1       3.0565861920      1.0000000000
 S 1 
   1       1.6981034400      1.0000000000
 S 1 
   1       0.9433908000      1.0000000000
 S 1 
   1       0.5241060000      1.0000000000
 S 1 
   1       0.2911700000      1.0000000000
 P 1 
   1     187.1303296277      1.0000000000
 P 1 
   1     103.9612942376      1.0000000000
 P 1 
   1      57.7562745765      1.0000000000
 P 1 
   1      32.0868192091      1.0000000000
 P 1 
   1      17.8260106717      1.0000000000
 P 1 
   1       9.9033392621      1.0000000000
 P 1 
   1       5.5018551456      1.0000000000
 P 1 
   1       3.0565861920      1.0000000000
 P 1 
   1       1.6981034400      1.0000000000
 P 1 
   1       0.9433908000      1.0000000000
 P 1 
   1       0.5241060000      1.0000000000
 P 1 
   1       0.2911700000      1.0000000000
 D 1 
   1      17.8260106717      1.0000000000
 D 1 
   1       9.9033392621      1.0000000000
 D 1 
   1       5.5018551456      1.0000000000
 D 1 
   1       3.0565861920      1.0000000000
 D 1 
   1       1.6981034400      1.0000000000
 D 1 
   1       0.9433908000      1.0000000000
 D 1 
   1       0.5241060000      1.0000000000
 D 1 
   1       0.2911700000      1.0000000000
  end;

 # Auxiliary/J basis set for element : O 
 NewAuxJGTO O 
 S 1 
   1    1064.5157744558      1.0000000000
 S 1 
   1     591.3976524755      1.0000000000
 S 1 
   1     328.5542513753      1.0000000000
 S 1 
   1     182.5301396529      1.0000000000
 S 1 
   1     101.4056331405      1.0000000000
 S 1 
   1      56.3364628558      1.0000000000
 S 1 
   1      31.2980349199      1.0000000000
 S 1 
   1      17.3877971777      1.0000000000
 S 1 
   1       9.6598873210      1.0000000000
 S 1 
   1       5.3666040672      1.0000000000
 S 1 
   1       2.9814467040      1.0000000000
 S 1 
   1       1.6563592800      1.0000000000
 S 1 
   1       0.9201996000      1.0000000000
 S 1 
   1       0.5112220000      1.0000000000
 P 1 
   1     328.5542513753      1.0000000000
 P 1 
   1     182.5301396529      1.0000000000
 P 1 
   1     101.4056331405      1.0000000000
 P 1 
   1      56.3364628558      1.0000000000
 P 1 
   1      31.2980349199      1.0000000000
 P 1 
   1      17.3877971777      1.0000000000
 P 1 
   1       9.6598873210      1.0000000000
 P 1 
   1       5.3666040672      1.0000000000
 P 1 
   1       2.9814467040      1.0000000000
 P 1 
   1       1.6563592800      1.0000000000
 P 1 
   1       0.9201996000      1.0000000000
 P 1 
   1       0.5112220000      1.0000000000
 D 1 
   1      31.2980349199      1.0000000000
 D 1 
   1      17.3877971777      1.0000000000
 D 1 
   1       9.6598873210      1.0000000000
 D 1 
   1       5.3666040672      1.0000000000
 D 1 
   1       2.9814467040      1.0000000000
 D 1 
   1       1.6563592800      1.0000000000
 D 1 
   1       0.9201996000      1.0000000000
 D 1 
   1       0.5112220000      1.0000000000
  end;

---------------------------------
AUXILIARY/C BASIS SET INFORMATION
---------------------------------
There are 3 groups of distinct atoms

 Group   1 Type C   : 14s12p8d contracted to 14s12p8d pattern {11111111111111/111111111111/11111111}
 Group   2 Type H   : 11s2p contracted to 11s2p pattern {11111111111/11}
 Group   3 Type O   : 14s12p8d contracted to 14s12p8d pattern {11111111111111/111111111111/11111111}

Atom   0C    basis set group =>   1
Atom   1H    basis set group =>   2
Atom   2H    basis set group =>   2
Atom   3C    basis set group =>   1
Atom   4H    basis set group =>   2
Atom   5H    basis set group =>   2
Atom   6O    basis set group =>   3
Atom   7H    basis set group =>   2
Atom   8O    basis set group =>   3
Atom   9H    basis set group =>   2

-------------------------------------
AUXILIARY/C BASIS SET IN INPUT FORMAT
-------------------------------------

 # Auxiliary/C basis set for element : H 
 NewAuxCGTO H 
 S 1 
   1      73.3666746661      1.0000000000
 S 1 
   1      40.7592637034      1.0000000000
 S 1 
   1      22.6440353908      1.0000000000
 S 1 
   1      12.5800196615      1.0000000000
 S 1 
   1       6.9888998120      1.0000000000
 S 1 
   1       3.8827221178      1.0000000000
 S 1 
   1       2.1570678432      1.0000000000
 S 1 
   1       1.1983710240      1.0000000000
 S 1 
   1       0.6657616800      1.0000000000
 S 1 
   1       0.3698676000      1.0000000000
 S 1 
   1       0.2054820000      1.0000000000
 P 1 
   1       2.0300000000      1.0000000000
 P 1 
   1       0.5400000000      1.0000000000
  end;

 # Auxiliary/C basis set for element : C 
 NewAuxCGTO C 
 S 1 
   1     606.3022679937      1.0000000000
 S 1 
   1     336.8345933299      1.0000000000
 S 1 
   1     187.1303296277      1.0000000000
 S 1 
   1     103.9612942376      1.0000000000
 S 1 
   1      57.7562745765      1.0000000000
 S 1 
   1      32.0868192091      1.0000000000
 S 1 
   1      17.8260106717      1.0000000000
 S 1 
   1       9.9033392621      1.0000000000
 S 1 
   1       5.5018551456      1.0000000000
 S 1 
   1       3.0565861920      1.0000000000
 S 1 
   1       1.6981034400      1.0000000000
 S 1 
   1       0.9433908000      1.0000000000
 S 1 
   1       0.5241060000      1.0000000000
 S 1 
   1       0.2911700000      1.0000000000
 P 1 
   1     187.1303296277      1.0000000000
 P 1 
   1     103.9612942376      1.0000000000
 P 1 
   1      57.7562745765      1.0000000000
 P 1 
   1      32.0868192091      1.0000000000
 P 1 
   1      17.8260106717      1.0000000000
 P 1 
   1       9.9033392621      1.0000000000
 P 1 
   1       5.5018551456      1.0000000000
 P 1 
   1       3.0565861920      1.0000000000
 P 1 
   1       1.6981034400      1.0000000000
 P 1 
   1       0.9433908000      1.0000000000
 P 1 
   1       0.5241060000      1.0000000000
 P 1 
   1       0.2911700000      1.0000000000
 D 1 
   1      17.8260106717      1.0000000000
 D 1 
   1       9.9033392621      1.0000000000
 D 1 
   1       5.5018551456      1.0000000000
 D 1 
   1       3.0565861920      1.0000000000
 D 1 
   1       1.6981034400      1.0000000000
 D 1 
   1       0.9433908000      1.0000000000
 D 1 
   1       0.5241060000      1.0000000000
 D 1 
   1       0.2911700000      1.0000000000
  end;

 # Auxiliary/C basis set for element : O 
 NewAuxCGTO O 
 S 1 
   1    1064.5157744558      1.0000000000
 S 1 
   1     591.3976524755      1.0000000000
 S 1 
   1     328.5542513753      1.0000000000
 S 1 
   1     182.5301396529      1.0000000000
 S 1 
   1     101.4056331405      1.0000000000
 S 1 
   1      56.3364628558      1.0000000000
 S 1 
   1      31.2980349199      1.0000000000
 S 1 
   1      17.3877971777      1.0000000000
 S 1 
   1       9.6598873210      1.0000000000
 S 1 
   1       5.3666040672      1.0000000000
 S 1 
   1       2.9814467040      1.0000000000
 S 1 
   1       1.6563592800      1.0000000000
 S 1 
   1       0.9201996000      1.0000000000
 S 1 
   1       0.5112220000      1.0000000000
 P 1 
   1     328.5542513753      1.0000000000
 P 1 
   1     182.5301396529      1.0000000000
 P 1 
   1     101.4056331405      1.0000000000
 P 1 
   1      56.3364628558      1.0000000000
 P 1 
   1      31.2980349199      1.0000000000
 P 1 
   1      17.3877971777      1.0000000000
 P 1 
   1       9.6598873210      1.0000000000
 P 1 
   1       5.3666040672      1.0000000000
 P 1 
   1       2.9814467040      1.0000000000
 P 1 
   1       1.6563592800      1.0000000000
 P 1 
   1       0.9201996000      1.0000000000
 P 1 
   1       0.5112220000      1.0000000000
 D 1 
   1      31.2980349199      1.0000000000
 D 1 
   1      17.3877971777      1.0000000000
 D 1 
   1       9.6598873210      1.0000000000
 D 1 
   1       5.3666040672      1.0000000000
 D 1 
   1       2.9814467040      1.0000000000
 D 1 
   1       1.6563592800      1.0000000000
 D 1 
   1       0.9201996000      1.0000000000
 D 1 
   1       0.5112220000      1.0000000000
  end;

----------------------------------
AUXILIARY/JK BASIS SET INFORMATION
----------------------------------
There are 3 groups of distinct atoms

 Group   1 Type C   : 14s12p8d contracted to 14s12p8d pattern {11111111111111/111111111111/11111111}
 Group   2 Type H   : 11s2p contracted to 11s2p pattern {11111111111/11}
 Group   3 Type O   : 14s12p8d contracted to 14s12p8d pattern {11111111111111/111111111111/11111111}

Atom   0C    basis set group =>   1
Atom   1H    basis set group =>   2
Atom   2H    basis set group =>   2
Atom   3C    basis set group =>   1
Atom   4H    basis set group =>   2
Atom   5H    basis set group =>   2
Atom   6O    basis set group =>   3
Atom   7H    basis set group =>   2
Atom   8O    basis set group =>   3
Atom   9H    basis set group =>   2

--------------------------------------
AUXILIARY/JK BASIS SET IN INPUT FORMAT
--------------------------------------

 # Auxiliary/JK basis set for element : H 
 NewAuxJKGTO H 
 S 1 
   1      73.3666746661      1.0000000000
 S 1 
   1      40.7592637034      1.0000000000
 S 1 
   1      22.6440353908      1.0000000000
 S 1 
   1      12.5800196615      1.0000000000
 S 1 
   1       6.9888998120      1.0000000000
 S 1 
   1       3.8827221178      1.0000000000
 S 1 
   1       2.1570678432      1.0000000000
 S 1 
   1       1.1983710240      1.0000000000
 S 1 
   1       0.6657616800      1.0000000000
 S 1 
   1       0.3698676000      1.0000000000
 S 1 
   1       0.2054820000      1.0000000000
 P 1 
   1       2.0300000000      1.0000000000
 P 1 
   1       0.5400000000      1.0000000000
  end;

 # Auxiliary/JK basis set for element : C 
 NewAuxJKGTO C 
 S 1 
   1     606.3022679937      1.0000000000
 S 1 
   1     336.8345933299      1.0000000000
 S 1 
   1     187.1303296277      1.0000000000
 S 1 
   1     103.9612942376      1.0000000000
 S 1 
   1      57.7562745765      1.0000000000
 S 1 
   1      32.0868192091      1.0000000000
 S 1 
   1      17.8260106717      1.0000000000
 S 1 
   1       9.9033392621      1.0000000000
 S 1 
   1       5.5018551456      1.0000000000
 S 1 
   1       3.0565861920      1.0000000000
 S 1 
   1       1.6981034400      1.0000000000
 S 1 
   1       0.9433908000      1.0000000000
 S 1 
   1       0.5241060000      1.0000000000
 S 1 
   1       0.2911700000      1.0000000000
 P 1 
   1     187.1303296277      1.0000000000
 P 1 
   1     103.9612942376      1.0000000000
 P 1 
   1      57.7562745765      1.0000000000
 P 1 
   1      32.0868192091      1.0000000000
 P 1 
   1      17.8260106717      1.0000000000
 P 1 
   1       9.9033392621      1.0000000000
 P 1 
   1       5.5018551456      1.0000000000
 P 1 
   1       3.0565861920      1.0000000000
 P 1 
   1       1.6981034400      1.0000000000
 P 1 
   1       0.9433908000      1.0000000000
 P 1 
   1       0.5241060000      1.0000000000
 P 1 
   1       0.2911700000      1.0000000000
 D 1 
   1      17.8260106717      1.0000000000
 D 1 
   1       9.9033392621      1.0000000000
 D 1 
   1       5.5018551456      1.0000000000
 D 1 
   1       3.0565861920      1.0000000000
 D 1 
   1       1.6981034400      1.0000000000
 D 1 
   1       0.9433908000      1.0000000000
 D 1 
   1       0.5241060000      1.0000000000
 D 1 
   1       0.2911700000      1.0000000000
  end;

 # Auxiliary/JK basis set for element : O 
 NewAuxJKGTO O 
 S 1 
   1    1064.5157744558      1.0000000000
 S 1 
   1     591.3976524755      1.0000000000
 S 1 
   1     328.5542513753      1.0000000000
 S 1 
   1     182.5301396529      1.0000000000
 S 1 
   1     101.4056331405      1.0000000000
 S 1 
   1      56.3364628558      1.0000000000
 S 1 
   1      31.2980349199      1.0000000000
 S 1 
   1      17.3877971777      1.0000000000
 S 1 
   1       9.6598873210      1.0000000000
 S 1 
   1       5.3666040672      1.0000000000
 S 1 
   1       2.9814467040      1.0000000000
 S 1 
   1       1.6563592800      1.0000000000
 S 1 
   1       0.9201996000      1.0000000000
 S 1 
   1       0.5112220000      1.0000000000
 P 1 
   1     328.5542513753      1.0000000000
 P 1 
   1     182.5301396529      1.0000000000
 P 1 
   1     101.4056331405      1.0000000000
 P 1 
   1      56.3364628558      1.0000000000
 P 1 
   1      31.2980349199      1.0000000000
 P 1 
   1      17.3877971777      1.0000000000
 P 1 
   1       9.6598873210      1.0000000000
 P 1 
   1       5.3666040672      1.0000000000
 P 1 
   1       2.9814467040      1.0000000000
 P 1 
   1       1.6563592800      1.0000000000
 P 1 
   1       0.9201996000      1.0000000000
 P 1 
   1       0.5112220000      1.0000000000
 D 1 
   1      31.2980349199      1.0000000000
 D 1 
   1      17.3877971777      1.0000000000
 D 1 
   1       9.6598873210      1.0000000000
 D 1 
   1       5.3666040672      1.0000000000
 D 1 
   1       2.9814467040      1.0000000000
 D 1 
   1       1.6563592800      1.0000000000
 D 1 
   1       0.9201996000      1.0000000000
 D 1 
   1       0.5112220000      1.0000000000
  end;

------------------------------------------------------------------------------
                           ORCA GTO INTEGRAL CALCULATION
                           -- RI-GTO INTEGRALS CHOSEN --
------------------------------------------------------------------------------
------------------------------------------------------------------------------
                   ___                                                        
                  /   \      - P O W E R E D   B Y -                         
                 /     \                                                     
                 |  |  |   _    _      __       _____    __    __             
                 |  |  |  | |  | |    /  \     |  _  \  |  |  /  |          
                  \  \/   | |  | |   /    \    | | | |  |  | /  /          
                 / \  \   | |__| |  /  /\  \   | |_| |  |  |/  /          
                |  |  |   |  __  | /  /__\  \  |    /   |      \           
                |  |  |   | |  | | |   __   |  |    \   |  |\   \          
                \     /   | |  | | |  |  |  |  | |\  \  |  | \   \       
                 \___/    |_|  |_| |__|  |__|  |_| \__\ |__|  \__/        
                                                                              
                      - O R C A' S   B I G   F R I E N D -                    
                                      &                                       
                       - I N T E G R A L  F E E D E R -                       
                                                                              
 v1 FN, 2020, v2 2021                                                         
------------------------------------------------------------------------------


Reading SHARK input file eg_0.SHARKINP.tmp ... ok
----------------------
SHARK INTEGRAL PACKAGE
----------------------

Number of atoms                             ...     10
Number of basis functions                   ...     70
Number of shells                            ...     46
Maximum angular momentum                    ...      1
Integral batch strategy                     ... SHARK/LIBINT Hybrid
RI-J (if used) integral strategy            ... SPLIT-RIJ (Revised 2003 algorithm where possible)
Printlevel                                  ...      1
Contraction scheme used                     ... SEGMENTED contraction
Coulomb Range Separation                    ... NOT USED
Exchange Range Separation                   ... NOT USED
Finite Nucleus Model                        ... NOT USED
Auxiliary Coulomb fitting basis             ... AVAILABLE
   # of basis functions in Aux-J            ...    462
   # of shells in Aux-J                     ...    214
   Maximum angular momentum in Aux-J        ...      2
Auxiliary J/K fitting basis                 ... AVAILABLE
   # of basis functions in Aux-JK           ...    462
   # of shells in Aux-JK                    ...    214
   Maximum angular momentum in Aux-JK       ...      2
Auxiliary Correlation fitting basis         ... AVAILABLE
   # of basis functions in Aux-C            ...    462
   # of shells in Aux-C                     ...    214
   Maximum angular momentum in Aux-C        ...      2
Auxiliary 'external' fitting basis          ... NOT available
Integral threshold                          ...     2.500000e-11
Primitive cut-off                           ...     2.500000e-12
Primitive pair pre-selection threshold      ...     2.500000e-12

Calculating pre-screening integrals         ... done (  0.0 sec) Dimension = 46
Organizing shell pair data                  ... done (  0.0 sec)
Shell pair information
Total number of shell pairs                 ...      1081
Shell pairs after pre-screening             ...      1037
Total number of primitive shell pairs       ...      4567
Primitive shell pairs kept                  ...      3274
          la=0 lb=0:    568 shell pairs
          la=1 lb=0:    394 shell pairs
          la=1 lb=1:     75 shell pairs

Calculating one electron integrals          ... done (  0.0 sec)
Calculating RI/J V-Matrix + Cholesky decomp.... done (  0.0 sec)
Calculating RI/JK V-Matrix + Cholesky decomp... done (  0.0 sec)
Calculating RI/C V-Matrix + Cholesky decomp.... done (  0.0 sec)
Calculating Nuclear repulsion               ... done (  0.0 sec) ENN=    128.675164358448 Eh

SHARK setup successfully completed in   0.1 seconds

Maximum memory used throughout the entire GTOINT-calculation: 7.2 MB
-------------------------------------------------------------------------------
                                 ORCA SCF
-------------------------------------------------------------------------------

------------
SCF SETTINGS
------------
Hamiltonian:
 Density Functional     Method          .... DFT(GTOs)
 Exchange Functional    Exchange        .... B88
   X-Alpha parameter    XAlpha          ....  0.666667
   Becke's b parameter  XBeta           ....  0.004200
 Correlation Functional Correlation     .... LYP
 LDA part of GGA corr.  LDAOpt          .... VWN-5
 Gradients option       PostSCFGGA      .... off
 Hybrid DFT is turned on
   Fraction HF Exchange ScalHFX         ....  0.200000
   Scaling of DF-GGA-X  ScalDFX         ....  0.720000
   Scaling of DF-GGA-C  ScalDFC         ....  0.810000
   Scaling of DF-LDA-C  ScalLDAC        ....  1.000000
   Perturbative correction              ....  0.000000
   Density functional embedding theory  .... OFF
   NL short-range parameter             ....  4.800000
 RI-approximation to the Coulomb term is turned on
   Number of AuxJ basis functions       .... 462
   RIJ-COSX (HFX calculated with COS-X)).... on


General Settings:
 Integral files         IntName         .... eg_0
 Hartree-Fock type      HFTyp           .... RHF
 Total Charge           Charge          ....    0
 Multiplicity           Mult            ....    1
 Number of Electrons    NEL             ....   34
 Basis Dimension        Dim             ....   70
 Nuclear Repulsion      ENuc            ....    128.6751643584 Eh

Convergence Acceleration:
 DIIS                   CNVDIIS         .... on
   Start iteration      DIISMaxIt       ....    12
   Startup error        DIISStart       ....  0.200000
   # of expansion vecs  DIISMaxEq       ....     5
   Bias factor          DIISBfac        ....   1.050
   Max. coefficient     DIISMaxC        ....  10.000
 Trust-Rad. Augm. Hess. CNVTRAH         .... auto
   Auto Start mean grad. ratio tolernc. ....  1.125000
   Auto Start start iteration           ....    20
   Auto Start num. interpolation iter.  ....    10
   Max. Number of Micro iterations      ....    16
   Max. Number of Macro iterations      .... Maxiter - #DIIS iter
   Number of Davidson start vectors     ....     2
   Converg. threshold I  (grad. norm)   ....   1.000e-05
   Converg. threshold II (energy diff.) ....   1.000e-08
   Grad. Scal. Fac. for Micro threshold ....   0.100
   Minimum threshold for Micro iter.    ....   0.010
   NR start threshold (gradient norm)   ....   0.001
   Initial trust radius                 ....   0.400
   Minimum AH scaling param. (alpha)    ....   1.000
   Maximum AH scaling param. (alpha)    .... 1000.000
   Orbital update algorithm             .... Taylor
   White noise on init. David. guess    .... on
   Maximum white noise                  ....   0.010
   Quad. conv. algorithm                .... NR
 SOSCF                  CNVSOSCF        .... on
   Start iteration      SOSCFMaxIt      ....   150
   Startup grad/error   SOSCFStart      ....  0.003300
 Level Shifting         CNVShift        .... on
   Level shift para.    LevelShift      ....    0.2500
   Turn off err/grad.   ShiftErr        ....    0.0010
 Zerner damping         CNVZerner       .... off
 Static damping         CNVDamp         .... on
   Fraction old density DampFac         ....    0.7000
   Max. Damping (<1)    DampMax         ....    0.9800
   Min. Damping (>=0)   DampMin         ....    0.0000
   Turn off err/grad.   DampErr         ....    0.1000
 Fernandez-Rico         CNVRico         .... off

SCF Procedure:
 Maximum # iterations   MaxIter         ....   125
 SCF integral mode      SCFMode         .... Direct
   Integral package                     .... SHARK and LIBINT hybrid scheme
 Reset frequency        DirectResetFreq ....    20
 Integral Threshold     Thresh          ....  2.500e-11 Eh
 Primitive CutOff       TCut            ....  2.500e-12 Eh

Convergence Tolerance:
 Convergence Check Mode ConvCheckMode   .... Total+1el-Energy
 Convergence forced     ConvForced      .... 0
 Energy Change          TolE            ....  1.000e-08 Eh
 1-El. energy change                    ....  1.000e-05 Eh
 Orbital Gradient       TolG            ....  1.000e-05
 Orbital Rotation angle TolX            ....  1.000e-05
 DIIS Error             TolErr          ....  5.000e-07


Diagonalization of the overlap matrix:
Smallest eigenvalue                        ... 3.884e-03
Time for diagonalization                   ...    0.001 sec
Threshold for overlap eigenvalues          ... 1.000e-08
Number of eigenvalues below threshold      ... 0
Time for construction of square roots      ...    0.000 sec
Total time needed                          ...    0.002 sec

Time for model grid setup =    0.031 sec

------------------------------
INITIAL GUESS: MODEL POTENTIAL
------------------------------
Loading Hartree-Fock densities                     ... done
Calculating cut-offs                               ... done
Initializing the effective Hamiltonian             ... done
Setting up the integral package (SHARK)            ... done
Starting the Coulomb interaction                   ... done (   0.0 sec)
Reading the grid                                   ... done
Mapping shells                                     ... done
Starting the XC term evaluation                    ... done (   0.0 sec)
  promolecular density results
     # of electrons  =     33.997755260
     EX              =    -28.441607533
     EC              =     -1.147022830
     EX+EC           =    -29.588630363
Transforming the Hamiltonian                       ... done (   0.0 sec)
Diagonalizing the Hamiltonian                      ... done (   0.0 sec)
Back transforming the eigenvectors                 ... done (   0.0 sec)
Now organizing SCF variables                       ... done
                      ------------------
                      INITIAL GUESS DONE (   0.1 sec)
                      ------------------
-------------------
DFT GRID GENERATION
-------------------

General Integration Accuracy     IntAcc      ... 4.959
Radial Grid Type                 RadialGrid  ... OptM3 with GC (2021)
Angular Grid (max. ang.)         AngularGrid ... 6 (Lebedev-590)
Angular grid pruning method      GridPruning ... 4 (adaptive)
Weight generation scheme         WeightScheme... Becke
Basis function cutoff            BFCut       ... 1.0000e-11
Integration weight cutoff        WCut        ... 1.0000e-14
Angular grids for H and He will be reduced by one unit
Partially contracted basis set               ... off
Rotationally invariant grid construction     ... off

Total number of grid points                  ...   110788
Total number of batches                      ...     1735
Average number of points per batch           ...       63
Average number of grid points per atom       ...    11079
Time for grid setup =    0.868 sec

--------------------
COSX GRID GENERATION
--------------------

GRIDX 1
-------
General Integration Accuracy     IntAcc      ... 4.020
Radial Grid Type                 RadialGrid  ... OptM3 with GC (2021)
Angular Grid (max. ang.)         AngularGrid ... 2 (Lebedev-110)
Angular grid pruning method      GridPruning ... 4 (adaptive)
Weight generation scheme         WeightScheme... Becke
Basis function cutoff            BFCut       ... 1.0000e-11
Integration weight cutoff        WCut        ... 1.0000e-14
Angular grids for H and He will be reduced by one unit
Partially contracted basis set               ... on
Rotationally invariant grid construction     ... off

Total number of grid points                  ...    12068
Total number of batches                      ...      195
Average number of points per batch           ...       61
Average number of grid points per atom       ...     1207
UseSFitting                                  ... on

GRIDX 2
-------
General Integration Accuracy     IntAcc      ... 4.338
Radial Grid Type                 RadialGrid  ... OptM3 with GC (2021)
Angular Grid (max. ang.)         AngularGrid ... 3 (Lebedev-194)
Angular grid pruning method      GridPruning ... 4 (adaptive)
Weight generation scheme         WeightScheme... Becke
Basis function cutoff            BFCut       ... 1.0000e-11
Integration weight cutoff        WCut        ... 1.0000e-14
Angular grids for H and He will be reduced by one unit
Partially contracted basis set               ... on
Rotationally invariant grid construction     ... off

Total number of grid points                  ...    26439
Total number of batches                      ...      419
Average number of points per batch           ...       63
Average number of grid points per atom       ...     2644
UseSFitting                                  ... on

GRIDX 3
-------
General Integration Accuracy     IntAcc      ... 4.871
Radial Grid Type                 RadialGrid  ... OptM3 with GC (2021)
Angular Grid (max. ang.)         AngularGrid ... 4 (Lebedev-302)
Angular grid pruning method      GridPruning ... 4 (adaptive)
Weight generation scheme         WeightScheme... Becke
Basis function cutoff            BFCut       ... 1.0000e-11
Integration weight cutoff        WCut        ... 1.0000e-14
Angular grids for H and He will be reduced by one unit
Partially contracted basis set               ... on
Rotationally invariant grid construction     ... off

Total number of grid points                  ...    52067
Total number of batches                      ...      818
Average number of points per batch           ...       63
Average number of grid points per atom       ...     5207
UseSFitting                                  ... on

Time for X-Grid setup             =    0.399 sec

--------------
SCF ITERATIONS
--------------
ITER       Energy         Delta-E        Max-DP      RMS-DP      [F,P]     Damp
               ***  Starting incremental Fock matrix formation  ***
  0   -229.9394712429   0.000000000000 0.07800672  0.00448344  0.3068578 0.7000
  1   -230.0215625383  -0.082091295382 0.03884586  0.00282653  0.1268916 0.7000
                               ***Turning on DIIS***
  2   -230.0506442313  -0.029081693006 0.04518363  0.00386552  0.0326053 0.0000
  3   -230.1006561722  -0.050011940862 0.02739568  0.00188012  0.0660564 0.0000
  4   -230.1099969228  -0.009340750619 0.00755230  0.00047548  0.0101218 0.0000
                      *** Initiating the SOSCF procedure ***
                           *** Shutting down DIIS ***
                      *** Re-Reading the Fockian *** 
                      *** Removing any level shift *** 
ITER      Energy       Delta-E        Grad      Rot      Max-DP    RMS-DP
  5   -230.11038895  -0.0003920231  0.000458  0.000458  0.001710  0.000136
               *** Restarting incremental Fock matrix formation ***
  6   -230.11040805  -0.0000191080  0.000170  0.000486  0.001261  0.000073
  7   -230.11040916  -0.0000011031  0.000096  0.000125  0.000238  0.000021
  8   -230.11040933  -0.0000001695  0.000046  0.000070  0.000158  0.000012
  9   -230.11040941  -0.0000000838  0.000022  0.000025  0.000068  0.000005
 10   -230.11040941  -0.0000000015  0.000017  0.000019  0.000050  0.000003
                  ***Gradient check signals convergence***
              ***Rediagonalizing the Fockian in SOSCF/NRSCF***

               *****************************************************
               *                     SUCCESS                       *
               *           SCF CONVERGED AFTER  11 CYCLES          *
               *****************************************************

Old exchange energy                            =     -5.788975366 Eh
New exchange energy                            =     -5.788975107 Eh
Exchange energy change after final integration =      0.000000259 Eh
Total energy after final integration           =   -230.110409159 Eh
Final COS-X integration done in                =     1.201 sec

----------------
TOTAL SCF ENERGY
----------------

Total Energy       :         -230.11040916 Eh           -6261.62257 eV

Components:
Nuclear Repulsion  :          128.67516436 Eh            3501.42923 eV
Electronic Energy  :         -358.78557352 Eh           -9763.05180 eV
One Electron Energy:         -568.72306616 Eh          -15475.74140 eV
Two Electron Energy:          209.93749265 Eh            5712.68960 eV
Max COSX asymmetry :            0.00000066 Eh               0.00002 eV

Virial components:
Potential Energy   :         -459.82553203 Eh          -12512.48885 eV
Kinetic Energy     :          229.71512287 Eh            6250.86628 eV
Virial Ratio       :            2.00172077


DFT components:
N(Alpha)           :       17.000002350815 electrons
N(Beta)            :       17.000002350815 electrons
N(Total)           :       34.000004701629 electrons
E(X)               :      -23.046862858087 Eh       
E(C)               :       -1.358510690452 Eh       
E(XC)              :      -24.405373548539 Eh       
DFET-embed. en.    :        0.000000000000 Eh       

---------------
SCF CONVERGENCE
---------------

  Last Energy change         ...   -5.8967e-09  Tolerance :   1.0000e-08
  Last MAX-Density change    ...    6.6613e-16  Tolerance :   1.0000e-07
  Last RMS-Density change    ...    6.0747e-17  Tolerance :   5.0000e-09
  Last Orbital Gradient      ...    7.1406e-07  Tolerance :   1.0000e-05
  Last Orbital Rotation      ...    1.2590e-06  Tolerance :   1.0000e-05

             **** THE GBW FILE WAS UPDATED (eg_0.gbw) ****
             **** DENSITY eg_0.scfp WAS UPDATED ****
             **** ENERGY FILE WAS UPDATED (eg_0.en.tmp) ****
             **** THE GBW FILE WAS UPDATED (eg_0.gbw) ****
             **** DENSITY eg_0.scfp WAS UPDATED ****
----------------
ORBITAL ENERGIES
----------------

  NO   OCC          E(Eh)            E(eV) 
   0   2.0000     -19.117686      -520.2187 
   1   2.0000     -19.116784      -520.1941 
   2   2.0000     -10.223630      -278.1991 
   3   2.0000     -10.221041      -278.1287 
   4   2.0000      -1.035559       -28.1790 
   5   2.0000      -1.025201       -27.8971 
   6   2.0000      -0.743833       -20.2407 
   7   2.0000      -0.634196       -17.2574 
   8   2.0000      -0.524435       -14.2706 
   9   2.0000      -0.517008       -14.0685 
  10   2.0000      -0.454244       -12.3606 
  11   2.0000      -0.430793       -11.7225 
  12   2.0000      -0.413354       -11.2479 
  13   2.0000      -0.331207        -9.0126 
  14   2.0000      -0.324355        -8.8261 
  15   2.0000      -0.298227        -8.1152 
  16   2.0000      -0.261828        -7.1247 
  17   0.0000       0.019501         0.5306 
  18   0.0000       0.025868         0.7039 
  19   0.0000       0.082555         2.2464 
  20   0.0000       0.086424         2.3517 
  21   0.0000       0.114227         3.1083 
  22   0.0000       0.134018         3.6468 
  23   0.0000       0.165011         4.4902 
  24   0.0000       0.217040         5.9060 
  25   0.0000       0.235180         6.3996 
  26   0.0000       0.318881         8.6772 
  27   0.0000       0.334250         9.0954 
  28   0.0000       0.386157        10.5079 
  29   0.0000       0.405271        11.0280 
  30   0.0000       0.459022        12.4906 
  31   0.0000       0.469630        12.7793 
  32   0.0000       0.489043        13.3075 
  33   0.0000       0.503879        13.7113 
  34   0.0000       0.539401        14.6778 
  35   0.0000       0.571073        15.5397 
  36   0.0000       0.582034        15.8379 
  37   0.0000       0.604413        16.4469 
  38   0.0000       0.740771        20.1574 
  39   0.0000       0.815962        22.2035 
  40   0.0000       0.866228        23.5713 
  41   0.0000       0.869412        23.6579 
  42   0.0000       0.935401        25.4536 
  43   0.0000       0.940978        25.6053 
  44   0.0000       0.970582        26.4109 
  45   0.0000       1.079542        29.3758 
  46   0.0000       1.408838        38.3364 
  47   0.0000       1.503466        40.9114 
  48   0.0000       2.165704        58.9318 
  49   0.0000       2.188884        59.5626 
  50   0.0000       2.230912        60.7062 
  51   0.0000       2.248853        61.1944 
  52   0.0000       2.255154        61.3659 
  53   0.0000       2.258689        61.4620 
  54   0.0000       2.702450        73.5374 
  55   0.0000       2.805612        76.3446 
  56   0.0000       2.815570        76.6155 
  57   0.0000       2.822068        76.7924 
  58   0.0000       2.980480        81.1030 
  59   0.0000       3.021927        82.2308 
  60   0.0000       4.821181       131.1910 
  61   0.0000       4.844307       131.8203 
  62   0.0000       4.874469       132.6410 
  63   0.0000       4.889291       133.0444 
  64   0.0000       5.033129       136.9584 
  65   0.0000       5.038297       137.0990 
  66   0.0000      23.279488       633.4671 
  67   0.0000      23.475384       638.7977 
  68   0.0000      49.790830      1354.8774 
  69   0.0000      49.827750      1355.8820 

                    ********************************
                    * MULLIKEN POPULATION ANALYSIS *
                    ********************************

-----------------------
MULLIKEN ATOMIC CHARGES
-----------------------
   0 C :   -0.125526
   1 H :    0.140683
   2 H :    0.194307
   3 C :   -0.105106
   4 H :    0.149611
   5 H :    0.197931
   6 O :   -0.588042
   7 H :    0.362619
   8 O :   -0.582040
   9 H :    0.355564
Sum of atomic charges:   -0.0000000

--------------------------------
MULLIKEN REDUCED ORBITAL CHARGES
--------------------------------
  0 C s       :     3.311625  s :     3.311625
      pz      :     0.930795  p :     2.813901
      px      :     0.874590
      py      :     1.008516
  1 H s       :     0.859317  s :     0.859317
  2 H s       :     0.805693  s :     0.805693
  3 C s       :     3.308440  s :     3.308440
      pz      :     0.907372  p :     2.796666
      px      :     0.802465
      py      :     1.086829
  4 H s       :     0.850389  s :     0.850389
  5 H s       :     0.802069  s :     0.802069
  6 O s       :     3.910110  s :     3.910110
      pz      :     1.804305  p :     4.677933
      px      :     1.307527
      py      :     1.566101
  7 H s       :     0.637381  s :     0.637381
  8 O s       :     3.907867  s :     3.907867
      pz      :     1.855073  p :     4.674173
      px      :     1.562468
      py      :     1.256631
  9 H s       :     0.644436  s :     0.644436


                     *******************************
                     * LOEWDIN POPULATION ANALYSIS *
                     *******************************

----------------------
LOEWDIN ATOMIC CHARGES
----------------------
   0 C :   -0.002313
   1 H :    0.048341
   2 H :    0.074291
   3 C :    0.001452
   4 H :    0.050428
   5 H :    0.079748
   6 O :   -0.375748
   7 H :    0.249799
   8 O :   -0.371380
   9 H :    0.245383

-------------------------------
LOEWDIN REDUCED ORBITAL CHARGES
-------------------------------
  0 C s       :     2.921014  s :     2.921014
      pz      :     1.069797  p :     3.081299
      px      :     0.959956
      py      :     1.051546
  1 H s       :     0.951659  s :     0.951659
  2 H s       :     0.925709  s :     0.925709
  3 C s       :     2.920383  s :     2.920383
      pz      :     1.062206  p :     3.078165
      px      :     0.931486
      py      :     1.084473
  4 H s       :     0.949572  s :     0.949572
  5 H s       :     0.920252  s :     0.920252
  6 O s       :     3.574479  s :     3.574479
      pz      :     1.813118  p :     4.801268
      px      :     1.370553
      py      :     1.617597
  7 H s       :     0.750201  s :     0.750201
  8 O s       :     3.575057  s :     3.575057
      pz      :     1.859229  p :     4.796324
      px      :     1.626184
      py      :     1.310910
  9 H s       :     0.754617  s :     0.754617


                      *****************************
                      * MAYER POPULATION ANALYSIS *
                      *****************************

  NA   - Mulliken gross atomic population
  ZA   - Total nuclear charge
  QA   - Mulliken gross atomic charge
  VA   - Mayer's total valence
  BVA  - Mayer's bonded valence
  FA   - Mayer's free valence

  ATOM       NA         ZA         QA         VA         BVA        FA
  0 C      6.1255     6.0000    -0.1255     3.5547     3.5547    -0.0000
  1 H      0.8593     1.0000     0.1407     0.9364     0.9364    -0.0000
  2 H      0.8057     1.0000     0.1943     0.9229     0.9229     0.0000
  3 C      6.1051     6.0000    -0.1051     3.5276     3.5276    -0.0000
  4 H      0.8504     1.0000     0.1496     0.9333     0.9333    -0.0000
  5 H      0.8021     1.0000     0.1979     0.9226     0.9226     0.0000
  6 O      8.5880     8.0000    -0.5880     1.7209     1.7209     0.0000
  7 H      0.6374     1.0000     0.3626     0.8402     0.8402     0.0000
  8 O      8.5820     8.0000    -0.5820     1.7320     1.7320    -0.0000
  9 H      0.6444     1.0000     0.3556     0.8462     0.8462     0.0000

  Mayer bond orders larger than 0.100000
B(  0-C ,  1-H ) :   0.9414 B(  0-C ,  2-H ) :   0.9223 B(  0-C ,  3-C ) :   0.8440 
B(  0-C ,  6-O ) :   0.8586 B(  3-C ,  4-H ) :   0.9338 B(  3-C ,  5-H ) :   0.9252 
B(  3-C ,  8-O ) :   0.8520 B(  6-O ,  7-H ) :   0.8217 B(  8-O ,  9-H ) :   0.8218 


-------
TIMINGS
-------

Total SCF time: 0 days 0 hours 0 min 10 sec 

Total time                  ....      10.822 sec
Sum of individual times     ....      10.768 sec  ( 99.5%)

Fock matrix formation       ....       9.423 sec  ( 87.1%)
  Split-RI-J                ....       0.391 sec  (  4.2% of F)
  Chain of spheres X        ....       6.591 sec  ( 69.9% of F)
  XC integration            ....       2.443 sec  ( 25.9% of F)
    Basis function eval.    ....       1.012 sec  ( 41.4% of XC)
    Density eval.           ....       0.611 sec  ( 25.0% of XC)
    XC-Functional eval.     ....       0.299 sec  ( 12.2% of XC)
    XC-Potential eval.      ....       0.393 sec  ( 16.1% of XC)
Diagonalization             ....       0.003 sec  (  0.0%)
Density matrix formation    ....       0.000 sec  (  0.0%)
Population analysis         ....       0.001 sec  (  0.0%)
Initial guess               ....       0.036 sec  (  0.3%)
Orbital Transformation      ....       0.000 sec  (  0.0%)
Orbital Orthonormalization  ....       0.000 sec  (  0.0%)
DIIS solution               ....       0.005 sec  (  0.0%)
SOSCF solution              ....       0.002 sec  (  0.0%)
Grid generation             ....       1.298 sec  ( 12.0%)

Maximum memory used throughout the entire SCF-calculation: 49.5 MB


-------------------------------------------------------------------------------
                          DFT DISPERSION CORRECTION                            
                                                                               
                              DFTD3 V3.1  Rev 1                                
                          USING Becke-Johnson damping                          
-------------------------------------------------------------------------------
The B3LYP functional is recognized
Active option DFTDOPT                   ...         4   

molecular C6(AA) [au] = 644.667754 


            DFT-D V3
 parameters
 s6 scaling factor         :     1.0000 
 a1 scaling factor         :     0.3981 
 s8 scaling factor         :     1.9889 
 a2 scaling factor         :     4.4211 
 ad hoc parameters k1-k3   :    16.0000     1.3333    -4.0000 

 Edisp/kcal,au: -5.458832046762  -0.008699201670 
 E6   /kcal   :  -2.747572763 
 E8   /kcal   :  -2.711259284 
 % E8         :  49.667387837 

-------------------------   ----------------
Dispersion correction           -0.008699202
-------------------------   ----------------


-------------------------   --------------------
FINAL SINGLE POINT ENERGY      -230.119108360273
-------------------------   --------------------

------------------------------------------------------------------------------
                         ORCA SCF GRADIENT CALCULATION
------------------------------------------------------------------------------

 ... reading COSX grid (gridx3)
Gradient of the Kohn-Sham DFT energy:
Kohn-Sham wavefunction type      ... RKS
Hartree-Fock exchange scaling    ...    0.200
Number of operators              ...    1
Number of atoms                  ...   10
Basis set dimensions             ...   70
Integral neglect threshold       ... 2.5e-11
Integral primitive cutoff        ... 2.5e-12
SHARK Integral package           ... ON

Nuc. rep. gradient       (SHARK) ... done (  0.0 sec)
HCore & Overlap gradient (SHARK) ... done (  0.0 sec)
RI-J gradient            (SHARK) ... done (  0.1 sec)
COSX-gradient                    ... done (  1.5 sec)
Exchange-correlation gradient    ... done
Dispersion correction            ... done

------------------
CARTESIAN GRADIENT
------------------

   1   C   :   -0.007346839   -0.004024933    0.001781531
   2   H   :   -0.006350315   -0.003808776   -0.005443211
   3   H   :    0.001549735   -0.000985136   -0.005751659
   4   C   :    0.008963570    0.002061000   -0.000573999
   5   H   :    0.006114126    0.003630780    0.005425914
   6   H   :   -0.002123843   -0.003875528    0.004587254
   7   O   :    0.007694772    0.009821804    0.001641906
   8   H   :    0.006609518    0.000549521    0.001079449
   9   O   :   -0.012712517    0.003120467   -0.002679854
  10   H   :   -0.002383753   -0.006480557   -0.000097560

Difference to translation invariance:
           :    0.0000144555    0.0000086409   -0.0000302276

Difference to rotation invariance:
           :   -0.0001089003   -0.0002266302    0.0001372018

Norm of the cartesian gradient     ...    0.0288012125
RMS gradient                       ...    0.0052583579
MAX gradient                       ...    0.0127125165

-------
TIMINGS
-------

Total SCF gradient time            ...        3.065 sec

One electron gradient       ....       0.011 sec  (  0.4%)
RI-J Coulomb gradient       ....       0.113 sec  (  3.7%)
COSX gradient               ....       1.467 sec  ( 47.9%)
XC gradient                 ....       1.357 sec  ( 44.3%)

Maximum memory used throughout the entire SCFGRAD-calculation: 37.5 MB
------------------------------------------------------------------------------
                         ORCA GEOMETRY RELAXATION STEP
------------------------------------------------------------------------------

Reading the OPT-File                    .... done
Getting information on internals        .... done
Copying old internal coords+grads       .... done
Making the new internal coordinates     .... (new redundants).... done
Validating the new internal coordinates .... (new redundants).... done
Calculating the B-matrix                .... done
Calculating the G,G- and P matrices     .... done
Transforming gradient to internals      .... done
Projecting the internal gradient        .... done
Number of atoms                         ....  10
Number of internal coordinates          ....  38
Current Energy                          ....  -230.119108360 Eh
Current gradient norm                   ....     0.028801213 Eh/bohr
Maximum allowed component of the step   ....  0.300
Current trust radius                    ....  0.300
Evaluating the initial hessian          ....  (Almloef) done
Projecting the Hessian                  .... done
Forming the augmented Hessian           .... done
Diagonalizing the augmented Hessian     .... done
Last element of RFO vector              ....  0.986975942
Lowest eigenvalues of augmented Hessian:
 -0.004046123  0.011161630  0.017090309  0.017265855  0.101378896
Length of the computed step             ....  0.162990726
The final length of the internal step   ....  0.162990726
Converting the step to cartesian space:
 Initial RMS(Int)=    0.0264405871
Transforming coordinates:
 Iter   0:  RMS(Cart)=    0.0461913630 RMS(Int)=    1.4392583187
 Iter   1:  RMS(Cart)=    0.0010406263 RMS(Int)=    0.0008220310
 Iter   2:  RMS(Cart)=    0.0000488531 RMS(Int)=    0.0000338912
 Iter   3:  RMS(Cart)=    0.0000029142 RMS(Int)=    0.0000026291
 Iter   4:  RMS(Cart)=    0.0000001610 RMS(Int)=    0.0000001305
 Iter   5:  RMS(Cart)=    0.0000000105 RMS(Int)=    0.0000000097
done
Storing new coordinates                 .... done

                                .--------------------.
          ----------------------|Geometry convergence|-------------------------
          Item                value                   Tolerance       Converged
          ---------------------------------------------------------------------
          RMS gradient        0.0055854226            0.0001000000      NO
          MAX gradient        0.0173574757            0.0003000000      NO
          RMS step            0.0264405871            0.0020000000      NO
          MAX step            0.0672117381            0.0040000000      NO
          ........................................................
          Max(Bonds)      0.0196      Max(Angles)    2.63
          Max(Dihed)        3.85      Max(Improp)    0.00
          ---------------------------------------------------------------------

The optimization has not yet converged - more geometry cycles are needed


    ---------------------------------------------------------------------------
                         Redundant Internal Coordinates
                            (Angstroem and degrees)

        Definition                    Value    dE/dq     Step     New-Value
    ----------------------------------------------------------------------------
     1. B(H   1,C   0)                1.0951 -0.001563  0.0023    1.0974   
     2. B(H   2,C   0)                1.0951  0.003802 -0.0056    1.0894   
     3. B(C   3,C   0)                1.5300  0.006676 -0.0094    1.5206   
     4. B(H   4,C   3)                1.0951 -0.001261  0.0019    1.0969   
     5. B(H   5,C   3)                1.0951  0.005285 -0.0078    1.0872   
     6. B(O   6,C   0)                1.4400 -0.017357  0.0196    1.4596   
     7. B(H   7,O   6)                0.9661 -0.004324  0.0045    0.9706   
     8. B(O   8,C   3)                1.4400 -0.014748  0.0166    1.4566   
     9. B(H   9,O   8)                0.9661 -0.006079  0.0063    0.9724   
    10. A(H   1,C   0,C   3)          111.38  0.005123   -0.93    110.45   
    11. A(H   2,C   0,O   6)          107.49 -0.002714    0.23    107.72   
    12. A(H   1,C   0,O   6)          107.49 -0.009239    2.62    110.11   
    13. A(H   1,C   0,H   2)          107.49 -0.001664    0.18    107.68   
    14. A(C   3,C   0,O   6)          111.38  0.004855   -0.64    110.74   
    15. A(H   2,C   0,C   3)          111.38  0.002773   -1.26    110.12   
    16. A(H   4,C   3,O   8)          107.49 -0.008345    2.63    110.12   
    17. A(H   4,C   3,H   5)          107.49 -0.001929    0.23    107.72   
    18. A(C   0,C   3,O   8)          111.38  0.001305   -0.10    111.29   
    19. A(C   0,C   3,H   5)          111.38  0.001960   -1.15    110.23   
    20. A(C   0,C   3,H   4)          111.38  0.005620   -0.81    110.58   
    21. A(H   5,C   3,O   8)          107.49  0.000786   -0.66    106.83   
    22. A(C   0,O   6,H   7)          109.00 -0.008834    1.42    110.42   
    23. A(C   3,O   8,H   9)          109.00 -0.005777    0.93    109.93   
    24. D(H   4,C   3,C   0,O   6)    -60.00 -0.000459   -0.49    -60.49   
    25. D(H   4,C   3,C   0,H   2)    180.00 -0.002185    0.51    180.51   
    26. D(H   5,C   3,C   0,H   1)    180.00 -0.002736    0.73    180.73   
    27. D(H   5,C   3,C   0,O   6)     60.00  0.002231   -1.53     58.47   
    28. D(O   8,C   3,C   0,H   1)    -60.00  0.000476   -0.95    -60.95   
    29. D(H   4,C   3,C   0,H   1)     60.00 -0.005427    1.77     61.77   
    30. D(O   8,C   3,C   0,H   2)     60.00  0.003717   -2.21     57.79   
    31. D(O   8,C   3,C   0,O   6)    180.00  0.005443   -3.21    176.79   
    32. D(H   5,C   3,C   0,H   2)    -60.00  0.000505   -0.53    -60.53   
    33. D(H   7,O   6,C   0,C   3)    101.89  0.000528   -2.04     99.85   
    34. D(H   7,O   6,C   0,H   2)   -135.84  0.005180   -3.85   -139.69   
    35. D(H   7,O   6,C   0,H   1)    -20.39 -0.002718   -2.22    -22.60   
    36. D(H   9,O   8,C   3,H   5)   -159.61  0.003771   -2.45   -162.06   
    37. D(H   9,O   8,C   3,H   4)    -44.16 -0.002241   -1.20    -45.36   
    38. D(H   9,O   8,C   3,C   0)     78.11  0.000012   -0.53     77.59   
    ----------------------------------------------------------------------------

         *************************************************************
         *                GEOMETRY OPTIMIZATION CYCLE   2            *
         *************************************************************
---------------------------------
CARTESIAN COORDINATES (ANGSTROEM)
---------------------------------
  C     -1.814690    0.018005   -1.701721
  H     -1.796658    1.047221   -2.082031
  H     -0.920961   -0.485422   -2.068725
  C     -1.829785    0.013841   -0.181169
  H     -2.731526    0.511299    0.196542
  H     -1.834687   -1.007434    0.191757
  O     -2.973893   -0.692815   -2.232078
  H     -3.662061   -0.064118   -2.502674
  O     -0.639479    0.654877    0.361021
  H     -0.726620    1.621452    0.300060

----------------------------
CARTESIAN COORDINATES (A.U.)
----------------------------
  NO LB      ZA    FRAG     MASS         X           Y           Z
   0 C     6.0000    0    12.011   -3.429267    0.034025   -3.215787
   1 H     1.0000    0     1.008   -3.395192    1.978960   -3.934469
   2 H     1.0000    0     1.008   -1.740365   -0.917315   -3.909324
   3 C     6.0000    0    12.011   -3.457792    0.026156   -0.342359
   4 H     1.0000    0     1.008   -5.161837    0.966215    0.371410
   5 H     1.0000    0     1.008   -3.467057   -1.903775    0.362369
   6 O     8.0000    0    15.999   -5.619843   -1.309231   -4.218016
   7 H     1.0000    0     1.008   -6.920291   -0.121166   -4.729368
   8 O     8.0000    0    15.999   -1.208440    1.237538    0.682230
   9 H     1.0000    0     1.008   -1.373113    3.064101    0.567031

--------------------------------
INTERNAL COORDINATES (ANGSTROEM)
--------------------------------
 C      0   0   0     0.000000000000     0.00000000     0.00000000
 H      1   0   0     1.097380911136     0.00000000     0.00000000
 H      1   2   0     1.089441053210   107.64786370     0.00000000
 C      1   2   3     1.520633317164   110.44295867   120.23449194
 H      4   1   2     1.096935300727   110.56272961    61.75657548
 H      4   1   2     1.087245002983   110.21841148   180.72693566
 O      1   2   3     1.459553613828   110.11352377   242.84920783
 H      7   1   2     0.970595940105   110.42362654   337.41112949
 O      4   1   2     1.456613873107   111.27772456   299.04623551
 H      9   4   1     0.972408198568   109.93056983    77.59268817

---------------------------
INTERNAL COORDINATES (A.U.)
---------------------------
 C      0   0   0     0.000000000000     0.00000000     0.00000000
 H      1   0   0     2.073749386641     0.00000000     0.00000000
 H      1   2   0     2.058745229617   107.64786370     0.00000000
 C      1   2   3     2.873580519557   110.44295867   120.23449194
 H      4   1   2     2.072907305004   110.56272961    61.75657548
 H      4   1   2     2.054595296112   110.21841148   180.72693566
 O      1   2   3     2.758156607911   110.11352377   242.84920783
 H      7   1   2     1.834160513495   110.42362654   337.41112949
 O      4   1   2     2.752601303042   111.27772456   299.04623551
 H      9   4   1     1.837585185672   109.93056983    77.59268817

------------------------------------------------------------------------------
                   ___                                                        
                  /   \      - P O W E R E D   B Y -                         
                 /     \                                                     
                 |  |  |   _    _      __       _____    __    __             
                 |  |  |  | |  | |    /  \     |  _  \  |  |  /  |          
                  \  \/   | |  | |   /    \    | | | |  |  | /  /          
                 / \  \   | |__| |  /  /\  \   | |_| |  |  |/  /          
                |  |  |   |  __  | /  /__\  \  |    /   |      \           
                |  |  |   | |  | | |   __   |  |    \   |  |\   \          
                \     /   | |  | | |  |  |  |  | |\  \  |  | \   \       
                 \___/    |_|  |_| |__|  |__|  |_| \__\ |__|  \__/        
                                                                              
                      - O R C A' S   B I G   F R I E N D -                    
                                      &                                       
                       - I N T E G R A L  F E E D E R -                       
                                                                              
 v1 FN, 2020, v2 2021                                                         
------------------------------------------------------------------------------


Reading SHARK input file eg_0.SHARKINP.tmp ... ok
----------------------
SHARK INTEGRAL PACKAGE
----------------------

Number of atoms                             ...     10
Number of basis functions                   ...     70
Number of shells                            ...     46
Maximum angular momentum                    ...      1
Integral batch strategy                     ... SHARK/LIBINT Hybrid
RI-J (if used) integral strategy            ... SPLIT-RIJ (Revised 2003 algorithm where possible)
Printlevel                                  ...      1
Contraction scheme used                     ... SEGMENTED contraction
Coulomb Range Separation                    ... NOT USED
Exchange Range Separation                   ... NOT USED
Finite Nucleus Model                        ... NOT USED
Auxiliary Coulomb fitting basis             ... AVAILABLE
   # of basis functions in Aux-J            ...    462
   # of shells in Aux-J                     ...    214
   Maximum angular momentum in Aux-J        ...      2
Auxiliary J/K fitting basis                 ... AVAILABLE
   # of basis functions in Aux-JK           ...    462
   # of shells in Aux-JK                    ...    214
   Maximum angular momentum in Aux-JK       ...      2
Auxiliary Correlation fitting basis         ... AVAILABLE
   # of basis functions in Aux-C            ...    462
   # of shells in Aux-C                     ...    214
   Maximum angular momentum in Aux-C        ...      2
Auxiliary 'external' fitting basis          ... NOT available
Integral threshold                          ...     2.500000e-11
Primitive cut-off                           ...     2.500000e-12
Primitive pair pre-selection threshold      ...     2.500000e-12

Calculating pre-screening integrals         ... done (  0.0 sec) Dimension = 46
Organizing shell pair data                  ... done (  0.0 sec)
Shell pair information
Total number of shell pairs                 ...      1081
[...]
     18       0.000000   0.000000   0.000000   0.000000   0.000000   0.000000
     19       0.000000   0.000000   0.000000   0.000000   0.000000   0.000000
     20       0.000000   0.000000   0.000000   0.000000   0.000000   0.000000
     21       0.000000   0.000000   0.000000   0.000000   0.000000   0.000000
     22       0.000000   0.000000   0.000000   0.000000   0.000000   0.000000
     23       0.000000   0.000000   0.000000   0.000000   0.000000   0.000000
     24       0.000000   0.000000   0.000000   0.000000   0.000000   0.000000
     25       0.000000   0.000000   0.000000   0.000000   0.000000   0.000000
     26       0.000000   0.000000   0.000000   0.000000   0.000000   0.000000
     27       0.000000   0.000000   0.000000   0.000000   0.000000   0.000000
     28       0.000000   0.000000   0.000000   0.000000   0.000000   0.000000
     29       0.000000   0.000000   0.000000   0.000000   0.000000   0.000000
                  6          7          8          9         10         11    
      0      -0.103052   0.087644   0.007194  -0.004967  -0.160342   0.027758
      1       0.176468   0.026402  -0.004711  -0.048629  -0.097644  -0.051581
      2      -0.002753  -0.165145   0.001401   0.051244  -0.091832   0.009193
      3      -0.350470   0.054893   0.004804   0.104633  -0.196140  -0.339721
      4       0.168154  -0.013821   0.009455  -0.055150  -0.119906   0.095337
      5      -0.060127  -0.272793   0.028943   0.052292  -0.150159   0.361205
      6       0.034522   0.015214   0.000209  -0.019378  -0.205512   0.101693
      7       0.374557  -0.049604  -0.000307  -0.115970  -0.118446   0.304990
      8       0.058032  -0.239776  -0.022684   0.127722  -0.187647  -0.355336
      9      -0.097292   0.070596  -0.000555  -0.044801   0.165380   0.029826
     10       0.179653   0.056677  -0.008736   0.022677   0.088690  -0.050643
     11      -0.003565  -0.165673   0.000220   0.050064   0.091981  -0.007353
     12       0.037430   0.020732  -0.010156   0.006664   0.202012   0.100329
     13       0.388337   0.046694   0.001071   0.119436   0.109028   0.329993
     14       0.050337  -0.274067  -0.027192   0.050107   0.150487  -0.368755
     15      -0.337090  -0.030734  -0.001478  -0.110637   0.205375  -0.318565
     16       0.163209   0.032339   0.000474   0.047248   0.119009   0.081033
     17      -0.067588  -0.240898   0.025072   0.124496   0.187444   0.348680
     18       0.095719  -0.056850   0.014558   0.022701  -0.168101  -0.009558
     19      -0.146743  -0.023653   0.031664   0.034571  -0.092262   0.007076
     20       0.007061   0.122755  -0.036300  -0.084710  -0.323080  -0.001760
     21      -0.035716  -0.061160  -0.093443  -0.090274  -0.213820   0.046518
     22      -0.349589  -0.142720  -0.329075  -0.331806  -0.176170   0.096500
     23      -0.066861   0.536331   0.618270   0.560633  -0.267247   0.016778
     24       0.075813  -0.051932  -0.034479   0.043255   0.161083  -0.001151
     25      -0.158115  -0.033024   0.005380  -0.001120   0.104565   0.011835
     26      -0.001646   0.123375   0.034042  -0.084306   0.322945   0.001377
     27       0.316001  -0.157883   0.337146  -0.344843   0.259450  -0.106432
     28      -0.149372   0.036739  -0.109352   0.114534   0.097907   0.010056
     29       0.075546   0.526544  -0.605883   0.560221   0.267492  -0.018416
                 12         13         14         15         16         17    
      0       0.262186  -0.236735   0.015029   0.003083  -0.044139   0.085835
      1       0.164199  -0.083401   0.115336   0.018644  -0.042609  -0.088923
      2      -0.053073  -0.133073   0.020704   0.340973   0.033670   0.041899
      3       0.129472   0.100607   0.403126   0.099620  -0.283955  -0.203318
      4       0.133545  -0.081063   0.079163   0.027600  -0.136615  -0.040242
      5      -0.106846  -0.096787  -0.022702   0.430085  -0.252708   0.122109
      6       0.319694  -0.303539  -0.207960  -0.044279   0.156099  -0.024660
      7       0.170712  -0.247828  -0.251080  -0.058458   0.131946   0.044923
      8       0.121617  -0.060152  -0.019317   0.364852   0.303742  -0.492100
      9      -0.272701  -0.198344   0.106513  -0.002522   0.060141  -0.031852
     10      -0.133960  -0.165782  -0.046181  -0.007401   0.014557   0.120899
     11       0.055461  -0.129200   0.035613  -0.338739  -0.033112   0.038016
     12      -0.181685  -0.019355   0.278704  -0.041145   0.260970  -0.142736
     13      -0.040034   0.125214   0.304782  -0.051922   0.179312  -0.150204
     14       0.106954  -0.097113  -0.012594  -0.431018   0.251546   0.122331
     15      -0.303219  -0.376031  -0.323439   0.045225  -0.190186   0.033867
     16      -0.185169  -0.136635  -0.047396  -0.007534  -0.073492  -0.057320
     17      -0.120318  -0.063296  -0.009009  -0.365244  -0.305505  -0.490502
     18      -0.162243   0.185588  -0.024934  -0.066047   0.009772  -0.008254
     19      -0.123591   0.126941  -0.024705  -0.035449   0.002973   0.035147
     20      -0.059660   0.120733  -0.003781  -0.044824  -0.017316   0.005987
     21       0.113651  -0.107024  -0.231440  -0.153346   0.224768  -0.220873
     22       0.298936  -0.329644  -0.317443  -0.148981   0.318648  -0.292824
     23       0.263988  -0.202847  -0.224923  -0.102657   0.210866  -0.209237
     24       0.184469   0.206993  -0.036463   0.060986  -0.008026   0.025698
     25       0.073992   0.097605  -0.010010   0.038746  -0.006314  -0.025239
     26       0.057997   0.122591  -0.005663   0.044509   0.017469   0.007246
     27      -0.305383  -0.341444  -0.392748   0.167571  -0.386079  -0.362383
     28       0.048918   0.075122  -0.041059   0.053000  -0.032516  -0.042595
     29      -0.267471  -0.216691  -0.232608   0.082362  -0.217018  -0.214887
                 18         19         20         21         22         23    
      0       0.010296   0.061868  -0.018693   0.054395   0.042460   0.044256
      1       0.025274  -0.036461   0.035070   0.031389   0.024048   0.023750
      2       0.032619  -0.012680   0.068624   0.088949  -0.029747  -0.035135
      3      -0.250147  -0.220445  -0.106734  -0.182438  -0.450744  -0.437149
      4      -0.165942  -0.098063  -0.091072  -0.152008   0.090474   0.107023
      5      -0.526958  -0.186760  -0.284628  -0.444795   0.162026   0.202395
      6       0.107051   0.271853  -0.327685  -0.201083  -0.175265  -0.143358
      7       0.061135   0.162166  -0.210437  -0.085297  -0.444935  -0.427765
      8       0.233905   0.209329  -0.371863  -0.430634   0.177281   0.217887
      9       0.026558  -0.001318   0.019019  -0.053782  -0.042938   0.043898
     10      -0.003009  -0.070795  -0.033070  -0.032398  -0.022953   0.024599
     11       0.032945   0.014303   0.069966  -0.088961   0.029665  -0.035254
     12      -0.264841   0.194682  -0.127005   0.217792   0.158748  -0.138851
     13      -0.142811   0.141837  -0.050281   0.088987   0.426681  -0.424535
     14      -0.528727   0.186121  -0.282927   0.446128  -0.170901   0.212382
     15       0.105653  -0.272571  -0.346781   0.171636   0.472875  -0.444326
     16       0.066796  -0.151733  -0.181985   0.139394  -0.085597   0.105506
     17       0.234439  -0.205508  -0.373093   0.429721  -0.167416   0.208921
     18      -0.009557  -0.025188   0.028372   0.011075   0.006957   0.003628
     19       0.032364   0.049247  -0.017902   0.007480   0.003870   0.003740
     20       0.000274   0.017115  -0.019022  -0.003820   0.001141   0.000898
     21      -0.136333  -0.281631   0.179646  -0.000739   0.008010  -0.008525
     22      -0.163734  -0.352299   0.219102  -0.006522   0.005655  -0.014180
     23      -0.108886  -0.237003   0.138944  -0.016307  -0.002520  -0.015979
     24       0.022816  -0.028468  -0.000509  -0.012146  -0.006894   0.005080
     25      -0.025182   0.046056   0.033440  -0.005591  -0.003965   0.001188
     26       0.001482  -0.018752  -0.020237   0.003844  -0.001140   0.000957
     27      -0.210985   0.438240   0.282448   0.004532  -0.008936  -0.016425
     28      -0.034753   0.063478   0.044228  -0.002504  -0.003809  -0.000385
     29      -0.112885   0.240457   0.145277   0.015655   0.002487  -0.016320
                 24         25         26         27         28         29    
      0      -0.007254   0.010768   0.048104   0.046720  -0.000734   0.001414
      1      -0.050115   0.044930  -0.033858  -0.040884   0.002740  -0.003061
      2       0.021227  -0.024634  -0.015301  -0.013025   0.001191  -0.001916
      3       0.018062  -0.013022   0.009792   0.009449   0.001902  -0.003268
      4       0.665638  -0.638017   0.063507   0.142543  -0.005398   0.004351
      5      -0.235062   0.225298  -0.025945  -0.060364   0.000466  -0.003768
      6       0.065848  -0.137707  -0.576743  -0.558833   0.010110  -0.014446
      7      -0.056999   0.096276   0.344998   0.336533  -0.008763   0.011935
      8      -0.016980   0.038337   0.207843   0.205315  -0.004635   0.006877
      9      -0.046047  -0.045251  -0.003634   0.010508   0.002255   0.001435
     10       0.020079   0.015170   0.057798  -0.061219  -0.002514  -0.002302
     11       0.019523   0.023955  -0.016826   0.014956   0.001653   0.001736
     12       0.570908   0.566477   0.058712  -0.128085  -0.003915  -0.001308
     13      -0.329816  -0.332309  -0.024715   0.067680   0.005305   0.004163
     14      -0.213226  -0.212346  -0.023925   0.056822   0.000983   0.003455
     15      -0.014067  -0.010479  -0.007768   0.005762  -0.002646  -0.002135
     16       0.082156   0.168101  -0.661363   0.651572   0.016412   0.015479
     17      -0.018662  -0.043332   0.224112  -0.224447  -0.006374  -0.006303
     18      -0.000528   0.001449  -0.001342  -0.001355  -0.034680   0.042357
     19      -0.000016   0.000383   0.000755   0.001437   0.018387  -0.022238
     20      -0.000212   0.000591   0.000426   0.000465   0.004371  -0.005101
     21       0.005472   0.000990   0.012396   0.013820   0.546862  -0.666531
     22      -0.001585   0.000989  -0.012318  -0.015123  -0.308628   0.375660
     23       0.002426   0.004511  -0.006455  -0.007585  -0.079847   0.096713
     24      -0.000267  -0.001078  -0.000067  -0.000514  -0.003031  -0.002644
     25      -0.000427  -0.001060  -0.001514   0.001902  -0.047554  -0.039036
     26      -0.000195  -0.000587   0.000466  -0.000530   0.006692   0.005305
     27       0.001508  -0.001267  -0.003907   0.005633   0.028104   0.023411
     28       0.005533  -0.000430   0.016677  -0.019573   0.761323   0.624851
     29       0.002399  -0.004448  -0.006968   0.008299  -0.120080  -0.098076


-----------
IR SPECTRUM
-----------

 Mode   freq       eps      Int      T**2         TX        TY        TZ
       cm**-1   L/(mol*cm) km/mol    a.u.
----------------------------------------------------------------------------
  6:    147.31   0.000846    4.28  0.001793  (-0.020838  0.036849 -0.000690)
  7:    267.39   0.002559   12.93  0.002987  ( 0.017300  0.010307  0.050807)
  8:    282.40   0.012546   63.40  0.013864  ( 0.057117 -0.102912  0.003304)
  9:    332.69   0.058196  294.10  0.054589  (-0.062352 -0.029871  0.223179)
 10:    462.43   0.000017    0.09  0.000012  ( 0.001754 -0.002917 -0.000029)
 11:    831.37   0.000056    0.28  0.000021  (-0.002239  0.003988 -0.000006)
 12:    987.84   0.000054    0.28  0.000017  (-0.001062  0.003964  0.000598)
 13:    996.29   0.044415  224.46  0.013912  (-0.087451 -0.050202 -0.061189)
 14:   1067.44   0.003778   19.09  0.001104  (-0.024559 -0.013979 -0.017491)
 15:   1069.85   0.000115    0.58  0.000033  ( 0.001967 -0.005423 -0.000442)
 16:   1148.78   0.000030    0.15  0.000008  (-0.001421  0.002490 -0.000091)
 17:   1321.11   0.005403   27.30  0.001276  (-0.027447 -0.015726 -0.016598)
 18:   1344.17   0.000105    0.53  0.000024  (-0.004297 -0.002413  0.000151)
 19:   1385.06   0.000008    0.04  0.000002  ( 0.000422 -0.001288 -0.000058)
 20:   1397.93   0.010795   54.56  0.002410  ( 0.038347  0.021947  0.021394)
 21:   1444.56   0.000036    0.18  0.000008  (-0.001409  0.002401 -0.000068)
 22:   1531.82   0.000064    0.32  0.000013  ( 0.001773 -0.003144  0.000071)
 23:   1552.30   0.000375    1.89  0.000075  (-0.005291 -0.002888  0.006244)
 24:   2973.07   0.018549   93.74  0.001947  (-0.034384 -0.019318  0.019788)
 25:   2980.98   0.009259   46.79  0.000969  (-0.015595  0.026944 -0.000284)
 26:   3117.80   0.002391   12.08  0.000239  ( 0.011753  0.006343 -0.007805)
 27:   3133.39   0.007186   36.32  0.000716  ( 0.013086 -0.023330  0.000434)
 28:   3659.04   0.003353   16.95  0.000286  ( 0.012271  0.007123  0.009202)
 29:   3660.03   0.000039    0.20  0.000003  (-0.001560 -0.000084 -0.000925)

* The epsilon (eps) is given for a Dirac delta lineshape.
** The dipole moment derivative (T) already includes vibrational overlap.

The first frequency considered to be a vibration is 6
The total number of vibrations considered is 24


--------------------------
THERMOCHEMISTRY AT 298.15K
--------------------------

Temperature         ... 298.15 K
Pressure            ... 1.00 atm
Total Mass          ... 62.07 AMU

Throughout the following assumptions are being made:
  (1) The electronic state is orbitally nondegenerate
  (2) There are no thermally accessible electronically excited states
  (3) Hindered rotations indicated by low frequency modes are not
      treated as such but are treated as vibrations and this may
      cause some error
  (4) All equations used are the standard statistical mechanics
      equations for an ideal gas
  (5) All vibrations are strictly harmonic

freq.     147.31  E(vib)   ...       0.41 
freq.     267.39  E(vib)   ...       0.29 
freq.     282.40  E(vib)   ...       0.28 
freq.     332.69  E(vib)   ...       0.24 
freq.     462.43  E(vib)   ...       0.16 
freq.     831.37  E(vib)   ...       0.04 
freq.     987.84  E(vib)   ...       0.02 
freq.     996.29  E(vib)   ...       0.02 
freq.    1067.44  E(vib)   ...       0.02 
freq.    1069.85  E(vib)   ...       0.02 
freq.    1148.78  E(vib)   ...       0.01 
freq.    1321.11  E(vib)   ...       0.01 
freq.    1344.17  E(vib)   ...       0.01 
freq.    1385.06  E(vib)   ...       0.00 
freq.    1397.93  E(vib)   ...       0.00 
freq.    1444.56  E(vib)   ...       0.00 
freq.    1531.82  E(vib)   ...       0.00 
freq.    1552.30  E(vib)   ...       0.00 
freq.    2973.07  E(vib)   ...       0.00 
freq.    2980.98  E(vib)   ...       0.00 
freq.    3117.80  E(vib)   ...       0.00 
freq.    3133.39  E(vib)   ...       0.00 
freq.    3659.04  E(vib)   ...       0.00 
freq.    3660.03  E(vib)   ...       0.00 

------------
INNER ENERGY
------------

The inner energy is: U= E(el) + E(ZPE) + E(vib) + E(rot) + E(trans)
    E(el)   - is the total energy from the electronic structure calculation
              = E(kin-el) + E(nuc-el) + E(el-el) + E(nuc-nuc)
    E(ZPE)  - the the zero temperature vibrational energy from the frequency calculation
    E(vib)  - the the finite temperature correction to E(ZPE) due to population
              of excited vibrational states
    E(rot)  - is the rotational thermal energy
    E(trans)- is the translational thermal energy

Summary of contributions to the inner energy U:
Electronic energy                ...   -230.12277366 Eh
Zero point energy                ...      0.08450874 Eh      53.03 kcal/mol
Thermal vibrational correction   ...      0.00245985 Eh       1.54 kcal/mol
Thermal rotational correction    ...      0.00141627 Eh       0.89 kcal/mol
Thermal translational correction ...      0.00141627 Eh       0.89 kcal/mol
-----------------------------------------------------------------------
Total thermal energy                   -230.03297253 Eh


Summary of corrections to the electronic energy:
(perhaps to be used in another calculation)
Total thermal correction                  0.00529239 Eh       3.32 kcal/mol
Non-thermal (ZPE) correction              0.08450874 Eh      53.03 kcal/mol
-----------------------------------------------------------------------
Total correction                          0.08980113 Eh      56.35 kcal/mol


--------
ENTHALPY
--------

The enthalpy is H = U + kB*T
                kB is Boltzmann's constant
Total free energy                 ...   -230.03297253 Eh 
Thermal Enthalpy correction       ...      0.00094421 Eh       0.59 kcal/mol
-----------------------------------------------------------------------
Total Enthalpy                    ...   -230.03202832 Eh


Note: Only C1 symmetry has been detected, increase convergence thresholds 
      if your molecule has a higher symmetry. Symmetry factor of 1.0 is   
      used for the rotational entropy correction. 
 

Note: Rotational entropy computed according to Herzberg 
Infrared and Raman Spectra, Chapter V,1, Van Nostrand Reinhold, 1945 
Point Group:  C1, Symmetry Number:   1  
Rotational constants in cm-1:     0.969981     0.126391     0.118877 

Vibrational entropy computed according to the QRRHO of S. Grimme
Chem.Eur.J. 2012 18 9955


-------
ENTROPY
-------

The entropy contributions are T*S = T*(S(el)+S(vib)+S(rot)+S(trans))
     S(el)   - electronic entropy
     S(vib)  - vibrational entropy
     S(rot)  - rotational entropy
     S(trans)- translational entropy
The entropies will be listed as multiplied by the temperature to get
units of energy

Electronic entropy                ...      0.00000000 Eh      0.00 kcal/mol
Vibrational entropy               ...      0.00404208 Eh      2.54 kcal/mol
Rotational entropy                ...      0.01150705 Eh      7.22 kcal/mol
Translational entropy             ...      0.01819577 Eh     11.42 kcal/mol
-----------------------------------------------------------------------
Final entropy term                ...      0.03374490 Eh     21.18 kcal/mol

In case the symmetry of your molecule has not been determined correctly
or in case you have a reason to use a different symmetry number we print 
out the resulting rotational entropy values for sn=1,12 :
 --------------------------------------------------------
|  sn= 1 | S(rot)=       0.01150705 Eh      7.22 kcal/mol|
|  sn= 2 | S(rot)=       0.01085260 Eh      6.81 kcal/mol|
|  sn= 3 | S(rot)=       0.01046977 Eh      6.57 kcal/mol|
|  sn= 4 | S(rot)=       0.01019814 Eh      6.40 kcal/mol|
|  sn= 5 | S(rot)=       0.00998745 Eh      6.27 kcal/mol|
|  sn= 6 | S(rot)=       0.00981531 Eh      6.16 kcal/mol|
|  sn= 7 | S(rot)=       0.00966976 Eh      6.07 kcal/mol|
|  sn= 8 | S(rot)=       0.00954369 Eh      5.99 kcal/mol|
|  sn= 9 | S(rot)=       0.00943248 Eh      5.92 kcal/mol|
|  sn=10 | S(rot)=       0.00933300 Eh      5.86 kcal/mol|
|  sn=11 | S(rot)=       0.00924301 Eh      5.80 kcal/mol|
|  sn=12 | S(rot)=       0.00916085 Eh      5.75 kcal/mol|
 --------------------------------------------------------


-------------------
GIBBS FREE ENERGY
-------------------

The Gibbs free energy is G = H - T*S

Total enthalpy                    ...   -230.03202832 Eh 
Total entropy correction          ...     -0.03374490 Eh    -21.18 kcal/mol
-----------------------------------------------------------------------
Final Gibbs free energy         ...   -230.06577322 Eh

For completeness - the Gibbs free energy minus the electronic energy
G-E(el)                           ...      0.05700044 Eh     35.77 kcal/mol


Timings for individual modules:

Sum of individual times         ...      183.616 sec (=   3.060 min)
GTO integral calculation        ...        0.907 sec (=   0.015 min)   0.5 %
SCF iterations                  ...       98.212 sec (=   1.637 min)  53.5 %
SCF Gradient evaluation         ...       31.480 sec (=   0.525 min)  17.1 %
Geometry relaxation             ...        0.389 sec (=   0.006 min)   0.2 %
Analytical frequency calculation...       52.628 sec (=   0.877 min)  28.7 %
                             ****ORCA TERMINATED NORMALLY****
TOTAL RUN TIME: 0 days 0 hours 3 minutes 4 seconds 324 msec
