
                                 *****************
                                 * O   R   C   A *
                                 *****************

                                            #,                                       
                                            ###                                      
                                            ####                                     
                                            #####                                    
                                            ######                                   
                                           ########,                                 
                                     ,,################,,,,,                         
                               ,,#################################,,                 
                          ,,##########################################,,             
                       ,#########################################, ''#####,          
                    ,#############################################,,   '####,        
                  ,##################################################,,,,####,       
                ,###########''''           ''''###############################       
              ,#####''   ,,,,##########,,,,          '''####'''          '####       
            ,##' ,,,,###########################,,,                        '##       
           ' ,,###''''                  '''############,,,                           
         ,,##''                                '''############,,,,        ,,,,,,###''
      ,#''                                            '''#######################'''  
     '                                                          ''''####''''         
             ,#######,   #######,   ,#######,      ##                                
            ,#'     '#,  ##    ##  ,#'     '#,    #''#        ######   ,####,        
            ##       ##  ##   ,#'  ##            #'  '#       #        #'  '#        
            ##       ##  #######   ##           ,######,      #####,   #    #        
            '#,     ,#'  ##    ##  '#,     ,#' ,#      #,         ##   #,  ,#        
             '#######'   ##     ##  '#######'  #'      '#     #####' # '####'        



                  #######################################################
                  #                        -***-                        #
                  #          Department of theory and spectroscopy      #
                  #    Directorship and core code : Frank Neese         #
                  #        Max Planck Institute fuer Kohlenforschung    #
                  #                Kaiser Wilhelm Platz 1               #
                  #                 D-45470 Muelheim/Ruhr               #
                  #                      Germany                        #
                  #                                                     #
                  #                  All rights reserved                #
                  #                        -***-                        #
                  #######################################################


                         Program Version 5.0.3 -  RELEASE  -


 With contributions from (in alphabetic order):
   Daniel Aravena         : Magnetic Suceptibility
   Michael Atanasov       : Ab Initio Ligand Field Theory (pilot matlab implementation)
   Alexander A. Auer      : GIAO ZORA, VPT2 properties, NMR spectrum
   Ute Becker             : Parallelization
   Giovanni Bistoni       : ED, misc. LED, open-shell LED, HFLD
   Martin Brehm           : Molecular dynamics
   Dmytro Bykov           : SCF Hessian
   Vijay G. Chilkuri      : MRCI spin determinant printing, contributions to CSF-ICE
   Dipayan Datta          : RHF DLPNO-CCSD density
   Achintya Kumar Dutta   : EOM-CC, STEOM-CC
   Dmitry Ganyushin       : Spin-Orbit,Spin-Spin,Magnetic field MRCI
   Miquel Garcia          : C-PCM and meta-GGA Hessian, CC/C-PCM, Gaussian charge scheme
   Yang Guo               : DLPNO-NEVPT2, F12-NEVPT2, CIM, IAO-localization
   Andreas Hansen         : Spin unrestricted coupled pair/coupled cluster methods
   Benjamin Helmich-Paris : MC-RPA, TRAH-SCF, COSX integrals
   Lee Huntington         : MR-EOM, pCC
   Robert Izsak           : Overlap fitted RIJCOSX, COSX-SCS-MP3, EOM
   Marcus Kettner         : VPT2
   Christian Kollmar      : KDIIS, OOCD, Brueckner-CCSD(T), CCSD density, CASPT2, CASPT2-K
   Simone Kossmann        : Meta GGA functionals, TD-DFT gradient, OOMP2, MP2 Hessian
   Martin Krupicka        : Initial AUTO-CI
   Lucas Lang             : DCDCAS
   Marvin Lechner         : AUTO-CI (C++ implementation), FIC-MRCC
   Dagmar Lenk            : GEPOL surface, SMD
   Dimitrios Liakos       : Extrapolation schemes; Compound Job, initial MDCI parallelization
   Dimitrios Manganas     : Further ROCIS development; embedding schemes
   Dimitrios Pantazis     : SARC Basis sets
   Anastasios Papadopoulos: AUTO-CI, single reference methods and gradients
   Taras Petrenko         : DFT Hessian,TD-DFT gradient, ASA, ECA, R-Raman, ABS, FL, XAS/XES, NRVS
   Peter Pinski           : DLPNO-MP2, DLPNO-MP2 Gradient
   Christoph Reimann      : Effective Core Potentials
   Marius Retegan         : Local ZFS, SOC
   Christoph Riplinger    : Optimizer, TS searches, QM/MM, DLPNO-CCSD(T), (RO)-DLPNO pert. Triples
   Tobias Risthaus        : Range-separated hybrids, TD-DFT gradient, RPA, STAB
   Michael Roemelt        : Original ROCIS implementation
   Masaaki Saitow         : Open-shell DLPNO-CCSD energy and density
   Barbara Sandhoefer     : DKH picture change effects
   Avijit Sen             : IP-ROCIS
   Kantharuban Sivalingam : CASSCF convergence, NEVPT2, FIC-MRCI
   Bernardo de Souza      : ESD, SOC TD-DFT
   Georgi Stoychev        : AutoAux, RI-MP2 NMR, DLPNO-MP2 response
   Willem Van den Heuvel  : Paramagnetic NMR
   Boris Wezisla          : Elementary symmetry handling
   Frank Wennmohs         : Technical directorship


 We gratefully acknowledge several colleagues who have allowed us to
 interface, adapt or use parts of their codes:
   Stefan Grimme, W. Hujo, H. Kruse, P. Pracht,  : VdW corrections, initial TS optimization,
                  C. Bannwarth, S. Ehlert          DFT functionals, gCP, sTDA/sTD-DF
   Ed Valeev, F. Pavosevic, A. Kumar             : LibInt (2-el integral package), F12 methods
   Garnet Chan, S. Sharma, J. Yang, R. Olivares  : DMRG
   Ulf Ekstrom                                   : XCFun DFT Library
   Mihaly Kallay                                 : mrcc  (arbitrary order and MRCC methods)
   Jiri Pittner, Ondrej Demel                    : Mk-CCSD
   Frank Weinhold                                : gennbo (NPA and NBO analysis)
   Christopher J. Cramer and Donald G. Truhlar   : smd solvation model
   Lars Goerigk                                  : TD-DFT with DH, B97 family of functionals
   V. Asgeirsson, H. Jonsson                     : NEB implementation
   FAccTs GmbH                                   : IRC, NEB, NEB-TS, DLPNO-Multilevel, CI-OPT
                                                   MM, QMMM, 2- and 3-layer-ONIOM, Crystal-QMMM,
                                                   LR-CPCM, SF, NACMEs, symmetry and pop. for TD-DFT,
                                                   nearIR, NL-DFT gradient (VV10), updates on ESD,
                                                   ML-optimized integration grids
   S Lehtola, MJT Oliveira, MAL Marques          : LibXC Library
   Liviu Ungur et al                             : ANISO software


 Your calculation uses the libint2 library for the computation of 2-el integrals
 For citations please refer to: http://libint.valeyev.net

 Your ORCA version has been built with support for libXC version: 5.1.0
 For citations please refer to: https://tddft.org/programs/libxc/

 This ORCA versions uses:
   CBLAS   interface :  Fast vector & matrix operations
   LAPACKE interface :  Fast linear algebra routines
   SCALAPACK package :  Parallel linear algebra routines
   Shared memory     :  Shared parallel matrices
   BLAS/LAPACK       :  OpenBLAS 0.3.19 NO_AFFINITY VORTEX SINGLE_THREADED
        Core in use  :  VORTEX
   Copyright (c) 2011-2014, The OpenBLAS Project


Your calculation utilizes the atom-pairwise dispersion correction
with the Becke-Johnson damping scheme (D3BJ)
Cite in your paper:
S.Grimme, S.Ehrlich, L.Goerigk, J Comput Chem, (2011), 32, 1456–1465 
S.Grimme, J.Antony, S.Ehrlich and H.Krieg, J.Chem.Phys., 132, (2010), 154104 
   

================================================================================

----- Orbital basis set information -----
Your calculation utilizes the basis: 6-311G
   H, Li - Ne  : R. Krishnan, J. S. Binkley, R. Seeger and J. A. Pople, J. Chem. Phys. 72, 650 (1980).
   Na - Ar     : A. D. McLean and G. S. Chandler J. Chem. Phys. 72, 5639, (1980).
   K  - Ca     : J.-P. Blaudeau, M. P. McGrath, L. A. Curtiss and L. Radom, J. Chem. Phys. 107, 5016 (1997).
   Ga - Kr     : L. A. Curtiss, M. P. McGrath, J.-P. Blandeau, N. E. Davis, R. C. Binning and L. Radom, J. Chem. Phys. 103, 6104 (1995).

----- AuxJ basis set information -----
Your calculation utilizes the AutoAux generation procedure.
  G. L. Stoychev, A. A. Auer, F. Neese, J. Chem. Theory Comput. 13, 554 (2017)

----- AuxC basis set information -----
Your calculation utilizes the AutoAux generation procedure.
  G. L. Stoychev, A. A. Auer, F. Neese, J. Chem. Theory Comput. 13, 554 (2017)

----- AuxJK basis set information -----
Your calculation utilizes the AutoAux generation procedure.
  G. L. Stoychev, A. A. Auer, F. Neese, J. Chem. Theory Comput. 13, 554 (2017)

================================================================================
                                        WARNINGS
                       Please study these warnings very carefully!
================================================================================


WARNING: your system is open-shell and RHF/RKS was chosen
  ===> : WILL SWITCH to UHF/UKS


WARNING: Geometry Optimization
  ===> : Switching off AutoStart
         For restart on a previous wavefunction, please use MOREAD

INFO   : the flag for use of the SHARK integral package has been found!

================================================================================
                                       INPUT FILE
================================================================================
NAME = eg_n.inp
|  1> !B3LYP D3BJ 6-311G
|  2> !RIJCOSX AutoAux printbasis
|  3> !Opt Freq
|  4> !DEFGRID3 TightSCF
|  5> *xyz -1 2
|  6> C       -1.815527635      0.000000000     -1.701852812
|  7> H       -1.815527635      1.019690000     -2.101108812
|  8> H       -0.932449635     -0.509845000     -2.101108811
|  9> C       -1.815527635      0.000000000     -0.171864812
| 10> H       -2.698605635      0.509845000      0.227391188
| 11> H       -1.815527635     -1.019690000      0.227391188
| 12> O       -2.976763524     -0.670439431     -2.226869171
| 13> H       -3.617938706     -0.008421754     -2.516756404
| 14> O       -0.654291745      0.670439431      0.353151548
| 15> H       -0.788200812      1.625327153      0.292608766
| 16> **                         ****END OF INPUT****
================================================================================

                       *****************************
                       * Geometry Optimization Run *
                       *****************************

Geometry optimization settings:
Update method            Update   .... BFGS
Choice of coordinates    CoordSys .... Z-matrix Internals
Initial Hessian          InHess   .... Almoef's Model

Convergence Tolerances:
Energy Change            TolE     ....  5.0000e-06 Eh
Max. Gradient            TolMAXG  ....  3.0000e-04 Eh/bohr
RMS Gradient             TolRMSG  ....  1.0000e-04 Eh/bohr
Max. Displacement        TolMAXD  ....  4.0000e-03 bohr
RMS Displacement         TolRMSD  ....  2.0000e-03 bohr
Strict Convergence                ....  False
------------------------------------------------------------------------------
                        ORCA OPTIMIZATION COORDINATE SETUP
------------------------------------------------------------------------------

The optimization will be done in new redundant internal coordinates
Making redundant internal coordinates   ...  (new redundants) done
Evaluating the initial hessian          ...  (Almloef) done
Evaluating the coordinates              ...  done
Calculating the B-matrix                .... done
Calculating the G-matrix                .... done
Diagonalizing the G-matrix              .... done
The first mode is                       ....   14
The number of degrees of freedom        ....   24

    -----------------------------------------------------------------
                    Redundant Internal Coordinates


    -----------------------------------------------------------------
         Definition                    Initial Value    Approx d2E/dq
    -----------------------------------------------------------------
      1. B(H   1,C   0)                  1.0951         0.353458   
      2. B(H   2,C   0)                  1.0951         0.353458   
      3. B(C   3,C   0)                  1.5300         0.373591   
      4. B(H   4,C   3)                  1.0951         0.353458   
      5. B(H   5,C   3)                  1.0951         0.353458   
      6. B(O   6,C   0)                  1.4400         0.465697   
      7. B(H   7,O   6)                  0.9661         0.508378   
      8. B(O   8,C   3)                  1.4400         0.465697   
      9. B(H   9,O   8)                  0.9661         0.508378   
     10. A(H   1,C   0,C   3)          111.3827         0.323332   
     11. A(H   2,C   0,O   6)          107.4940         0.333289   
     12. A(H   1,C   0,O   6)          107.4940         0.333289   
     13. A(H   1,C   0,H   2)          107.4940         0.289146   
     14. A(C   3,C   0,O   6)          111.3826         0.375016   
     15. A(H   2,C   0,C   3)          111.3826         0.323332   
     16. A(H   4,C   3,O   8)          107.4940         0.333289   
     17. A(H   4,C   3,H   5)          107.4940         0.289146   
     18. A(C   0,C   3,O   8)          111.3826         0.375016   
     19. A(C   0,C   3,H   5)          111.3827         0.323332   
     20. A(C   0,C   3,H   4)          111.3826         0.323332   
     21. A(H   5,C   3,O   8)          107.4940         0.333289   
     22. A(C   0,O   6,H   7)          108.9987         0.351145   
     23. A(C   3,O   8,H   9)          108.9987         0.351145   
     24. D(H   4,C   3,C   0,O   6)    -60.0000         0.011145   
     25. D(H   4,C   3,C   0,H   2)    180.0000         0.011145   
     26. D(H   5,C   3,C   0,H   1)    180.0000         0.011145   
     27. D(H   5,C   3,C   0,O   6)     60.0000         0.011145   
     28. D(O   8,C   3,C   0,H   1)    -60.0000         0.011145   
     29. D(H   4,C   3,C   0,H   1)     60.0000         0.011145   
     30. D(O   8,C   3,C   0,H   2)     60.0000         0.011145   
     31. D(O   8,C   3,C   0,O   6)    180.0000         0.011145   
     32. D(H   5,C   3,C   0,H   2)    -60.0000         0.011145   
     33. D(H   7,O   6,C   0,C   3)    101.8871         0.017090   
     34. D(H   7,O   6,C   0,H   2)   -135.8406         0.017090   
     35. D(H   7,O   6,C   0,H   1)    -20.3851         0.017090   
     36. D(H   9,O   8,C   3,H   5)   -159.6149         0.017090   
     37. D(H   9,O   8,C   3,H   4)    -44.1594         0.017090   
     38. D(H   9,O   8,C   3,C   0)     78.1129         0.017090   
    -----------------------------------------------------------------

Number of atoms                         .... 10
Number of degrees of freedom            .... 38

         *************************************************************
         *                GEOMETRY OPTIMIZATION CYCLE   1            *
         *************************************************************
---------------------------------
CARTESIAN COORDINATES (ANGSTROEM)
---------------------------------
  C     -1.815528    0.000000   -1.701853
  H     -1.815528    1.019690   -2.101109
  H     -0.932450   -0.509845   -2.101109
  C     -1.815528    0.000000   -0.171865
  H     -2.698606    0.509845    0.227391
  H     -1.815528   -1.019690    0.227391
  O     -2.976764   -0.670439   -2.226869
  H     -3.617939   -0.008422   -2.516756
  O     -0.654292    0.670439    0.353152
  H     -0.788201    1.625327    0.292609

----------------------------
CARTESIAN COORDINATES (A.U.)
----------------------------
  NO LB      ZA    FRAG     MASS         X           Y           Z
   0 C     6.0000    0    12.011   -3.430850    0.000000   -3.216036
   1 H     1.0000    0     1.008   -3.430850    1.926935   -3.970520
   2 H     1.0000    0     1.008   -1.762074   -0.963467   -3.970520
   3 C     6.0000    0    12.011   -3.430850    0.000000   -0.324777
   4 H     1.0000    0     1.008   -5.099626    0.963467    0.429707
   5 H     1.0000    0     1.008   -3.430850   -1.926935    0.429707
   6 O     8.0000    0    15.999   -5.625268   -1.266947   -4.208173
   7 H     1.0000    0     1.008   -6.836913   -0.015915   -4.755980
   8 O     8.0000    0    15.999   -1.236432    1.266947    0.667360
   9 H     1.0000    0     1.008   -1.489484    3.071423    0.552950

--------------------------------
INTERNAL COORDINATES (ANGSTROEM)
--------------------------------
 C      0   0   0     0.000000000000     0.00000000     0.00000000
 H      1   0   0     1.095067600487     0.00000000     0.00000000
 H      1   2   0     1.095068048500   107.49399117     0.00000000
 C      1   2   3     1.529988000000   111.38265079   122.27226296
 H      4   1   2     1.095068048865   111.38264160    60.00001562
 H      4   1   2     1.095067600487   111.38265079   180.00000000
 O      1   2   3     1.439999999222   107.49399114   244.54452597
 H      7   1   2     0.966130232696   108.99865134   339.61487484
 O      4   1   2     1.440000000393   111.38264163   299.99998436
 H      9   4   1     0.966130233614   108.99865122    78.11285639

---------------------------
INTERNAL COORDINATES (A.U.)
---------------------------
 C      0   0   0     0.000000000000     0.00000000     0.00000000
 H      1   0   0     2.069377863050     0.00000000     0.00000000
 H      1   2   0     2.069378709673   107.49399117     0.00000000
 C      1   2   3     2.891258308186   111.38265079   122.27226296
 H      4   1   2     2.069378710362   111.38264160    60.00001562
 H      4   1   2     2.069377863050   111.38265079   180.00000000
 O      1   2   3     2.721205631376   107.49399114   244.54452597
 H      7   1   2     1.825721549497   108.99865134   339.61487484
 O      4   1   2     2.721205633589   111.38264163   299.99998436
 H      9   4   1     1.825721551232   108.99865122    78.11285639

---------------------
BASIS SET INFORMATION
---------------------
There are 3 groups of distinct atoms

 Group   1 Type C   : 11s5p contracted to 4s3p pattern {6311/311}
 Group   2 Type H   : 5s contracted to 3s pattern {311}
 Group   3 Type O   : 11s5p contracted to 4s3p pattern {6311/311}

Atom   0C    basis set group =>   1
Atom   1H    basis set group =>   2
Atom   2H    basis set group =>   2
Atom   3C    basis set group =>   1
Atom   4H    basis set group =>   2
Atom   5H    basis set group =>   2
Atom   6O    basis set group =>   3
Atom   7H    basis set group =>   2
Atom   8O    basis set group =>   3
Atom   9H    basis set group =>   2

-------------------------
BASIS SET IN INPUT FORMAT
-------------------------

 # Basis set for element : H 
 NewGTO H 
 S 3 
   1      33.8650000000      0.0254938145
   2       5.0947900000      0.1903731086
   3       1.1587900000      0.8521614860
 S 1 
   1       0.3258400000      1.0000000000
 S 1 
   1       0.1027410000      1.0000000000
  end;

 # Basis set for element : C 
 NewGTO C 
 S 6 
   1    4563.2400000000      0.0019666502
   2     682.0240000000      0.0152306019
   3     154.9730000000      0.0761269097
   4      44.4553000000      0.2608010331
   5      13.0290000000      0.6164620782
   6       1.8277300000      0.2210060280
 S 3 
   1      20.9642000000      0.1146600807
   2       4.8033100000      0.9199996477
   3       1.4593300000     -0.0030306821
 P 3 
   1      20.9642000000      0.0402486927
   2       4.8033100000      0.2375939567
   3       1.4593300000      0.8158538515
 S 1 
   1       0.4834560000      1.0000000000
 P 1 
   1       0.4834560000      1.0000000000
 S 1 
   1       0.1455850000      1.0000000000
 P 1 
   1       0.1455850000      1.0000000000
  end;

 # Basis set for element : O 
 NewGTO O 
 S 6 
   1    8588.5000000000      0.0018951501
   2    1297.2300000000      0.0143859006
   3     299.2960000000      0.0707320031
   4      87.3771000000      0.2400010105
   5      25.6789000000      0.5947970261
   6       3.7400400000      0.2808020123
 S 3 
   1      42.1175000000      0.1138890124
   2       9.6283700000      0.9208111006
   3       2.8533200000     -0.0032744704
 P 3 
   1      42.1175000000      0.0365113974
   2       9.6283700000      0.2371529830
   3       2.8533200000      0.8197019412
 S 1 
   1       0.9056610000      1.0000000000
 P 1 
   1       0.9056610000      1.0000000000
 S 1 
   1       0.2556110000      1.0000000000
 P 1 
   1       0.2556110000      1.0000000000
  end;

---------------------------------
AUXILIARY/J BASIS SET INFORMATION
---------------------------------
There are 3 groups of distinct atoms

 Group   1 Type C   : 14s12p8d contracted to 14s12p8d pattern {11111111111111/111111111111/11111111}
 Group   2 Type H   : 11s2p contracted to 11s2p pattern {11111111111/11}
 Group   3 Type O   : 14s12p8d contracted to 14s12p8d pattern {11111111111111/111111111111/11111111}

Atom   0C    basis set group =>   1
Atom   1H    basis set group =>   2
Atom   2H    basis set group =>   2
Atom   3C    basis set group =>   1
Atom   4H    basis set group =>   2
Atom   5H    basis set group =>   2
Atom   6O    basis set group =>   3
Atom   7H    basis set group =>   2
Atom   8O    basis set group =>   3
Atom   9H    basis set group =>   2

-------------------------------------
AUXILIARY/J BASIS SET IN INPUT FORMAT
-------------------------------------

 # Auxiliary/J basis set for element : H 
 NewAuxJGTO H 
 S 1 
   1      73.3666746661      1.0000000000
 S 1 
   1      40.7592637034      1.0000000000
 S 1 
   1      22.6440353908      1.0000000000
 S 1 
   1      12.5800196615      1.0000000000
 S 1 
   1       6.9888998120      1.0000000000
 S 1 
   1       3.8827221178      1.0000000000
 S 1 
   1       2.1570678432      1.0000000000
 S 1 
   1       1.1983710240      1.0000000000
 S 1 
   1       0.6657616800      1.0000000000
 S 1 
   1       0.3698676000      1.0000000000
 S 1 
   1       0.2054820000      1.0000000000
 P 1 
   1       2.0300000000      1.0000000000
 P 1 
   1       0.5400000000      1.0000000000
  end;

 # Auxiliary/J basis set for element : C 
 NewAuxJGTO C 
 S 1 
   1     606.3022679937      1.0000000000
 S 1 
   1     336.8345933299      1.0000000000
 S 1 
   1     187.1303296277      1.0000000000
 S 1 
   1     103.9612942376      1.0000000000
 S 1 
   1      57.7562745765      1.0000000000
 S 1 
   1      32.0868192091      1.0000000000
 S 1 
   1      17.8260106717      1.0000000000
 S 1 
   1       9.9033392621      1.0000000000
 S 1 
   1       5.5018551456      1.0000000000
 S 1 
   1       3.0565861920      1.0000000000
 S 1 
   1       1.6981034400      1.0000000000
 S 1 
   1       0.9433908000      1.0000000000
 S 1 
   1       0.5241060000      1.0000000000
 S 1 
   1       0.2911700000      1.0000000000
 P 1 
   1     187.1303296277      1.0000000000
 P 1 
   1     103.9612942376      1.0000000000
 P 1 
   1      57.7562745765      1.0000000000
 P 1 
   1      32.0868192091      1.0000000000
 P 1 
   1      17.8260106717      1.0000000000
 P 1 
   1       9.9033392621      1.0000000000
 P 1 
   1       5.5018551456      1.0000000000
 P 1 
   1       3.0565861920      1.0000000000
 P 1 
   1       1.6981034400      1.0000000000
 P 1 
   1       0.9433908000      1.0000000000
 P 1 
   1       0.5241060000      1.0000000000
 P 1 
   1       0.2911700000      1.0000000000
 D 1 
   1      17.8260106717      1.0000000000
 D 1 
   1       9.9033392621      1.0000000000
 D 1 
   1       5.5018551456      1.0000000000
 D 1 
   1       3.0565861920      1.0000000000
 D 1 
   1       1.6981034400      1.0000000000
 D 1 
   1       0.9433908000      1.0000000000
 D 1 
   1       0.5241060000      1.0000000000
 D 1 
   1       0.2911700000      1.0000000000
  end;

 # Auxiliary/J basis set for element : O 
 NewAuxJGTO O 
 S 1 
   1    1064.5157744558      1.0000000000
 S 1 
   1     591.3976524755      1.0000000000
 S 1 
   1     328.5542513753      1.0000000000
 S 1 
   1     182.5301396529      1.0000000000
 S 1 
   1     101.4056331405      1.0000000000
 S 1 
   1      56.3364628558      1.0000000000
 S 1 
   1      31.2980349199      1.0000000000
 S 1 
   1      17.3877971777      1.0000000000
 S 1 
   1       9.6598873210      1.0000000000
 S 1 
   1       5.3666040672      1.0000000000
 S 1 
   1       2.9814467040      1.0000000000
 S 1 
   1       1.6563592800      1.0000000000
 S 1 
   1       0.9201996000      1.0000000000
 S 1 
   1       0.5112220000      1.0000000000
 P 1 
   1     328.5542513753      1.0000000000
 P 1 
   1     182.5301396529      1.0000000000
 P 1 
   1     101.4056331405      1.0000000000
 P 1 
   1      56.3364628558      1.0000000000
 P 1 
   1      31.2980349199      1.0000000000
 P 1 
   1      17.3877971777      1.0000000000
 P 1 
   1       9.6598873210      1.0000000000
 P 1 
   1       5.3666040672      1.0000000000
 P 1 
   1       2.9814467040      1.0000000000
 P 1 
   1       1.6563592800      1.0000000000
 P 1 
   1       0.9201996000      1.0000000000
 P 1 
   1       0.5112220000      1.0000000000
 D 1 
   1      31.2980349199      1.0000000000
 D 1 
   1      17.3877971777      1.0000000000
 D 1 
   1       9.6598873210      1.0000000000
 D 1 
   1       5.3666040672      1.0000000000
 D 1 
   1       2.9814467040      1.0000000000
 D 1 
   1       1.6563592800      1.0000000000
 D 1 
   1       0.9201996000      1.0000000000
 D 1 
   1       0.5112220000      1.0000000000
  end;

---------------------------------
AUXILIARY/C BASIS SET INFORMATION
---------------------------------
There are 3 groups of distinct atoms

 Group   1 Type C   : 14s12p8d contracted to 14s12p8d pattern {11111111111111/111111111111/11111111}
 Group   2 Type H   : 11s2p contracted to 11s2p pattern {11111111111/11}
 Group   3 Type O   : 14s12p8d contracted to 14s12p8d pattern {11111111111111/111111111111/11111111}

Atom   0C    basis set group =>   1
Atom   1H    basis set group =>   2
Atom   2H    basis set group =>   2
Atom   3C    basis set group =>   1
Atom   4H    basis set group =>   2
Atom   5H    basis set group =>   2
Atom   6O    basis set group =>   3
Atom   7H    basis set group =>   2
Atom   8O    basis set group =>   3
Atom   9H    basis set group =>   2

-------------------------------------
AUXILIARY/C BASIS SET IN INPUT FORMAT
-------------------------------------

 # Auxiliary/C basis set for element : H 
 NewAuxCGTO H 
 S 1 
   1      73.3666746661      1.0000000000
 S 1 
   1      40.7592637034      1.0000000000
 S 1 
   1      22.6440353908      1.0000000000
 S 1 
   1      12.5800196615      1.0000000000
 S 1 
   1       6.9888998120      1.0000000000
 S 1 
   1       3.8827221178      1.0000000000
 S 1 
   1       2.1570678432      1.0000000000
 S 1 
   1       1.1983710240      1.0000000000
 S 1 
   1       0.6657616800      1.0000000000
 S 1 
   1       0.3698676000      1.0000000000
 S 1 
   1       0.2054820000      1.0000000000
 P 1 
   1       2.0300000000      1.0000000000
 P 1 
   1       0.5400000000      1.0000000000
  end;

 # Auxiliary/C basis set for element : C 
 NewAuxCGTO C 
 S 1 
   1     606.3022679937      1.0000000000
 S 1 
   1     336.8345933299      1.0000000000
 S 1 
   1     187.1303296277      1.0000000000
 S 1 
   1     103.9612942376      1.0000000000
 S 1 
   1      57.7562745765      1.0000000000
 S 1 
   1      32.0868192091      1.0000000000
 S 1 
   1      17.8260106717      1.0000000000
 S 1 
   1       9.9033392621      1.0000000000
 S 1 
   1       5.5018551456      1.0000000000
 S 1 
   1       3.0565861920      1.0000000000
 S 1 
   1       1.6981034400      1.0000000000
 S 1 
   1       0.9433908000      1.0000000000
 S 1 
   1       0.5241060000      1.0000000000
 S 1 
   1       0.2911700000      1.0000000000
 P 1 
   1     187.1303296277      1.0000000000
 P 1 
   1     103.9612942376      1.0000000000
 P 1 
   1      57.7562745765      1.0000000000
 P 1 
   1      32.0868192091      1.0000000000
 P 1 
   1      17.8260106717      1.0000000000
 P 1 
   1       9.9033392621      1.0000000000
 P 1 
   1       5.5018551456      1.0000000000
 P 1 
   1       3.0565861920      1.0000000000
 P 1 
   1       1.6981034400      1.0000000000
 P 1 
   1       0.9433908000      1.0000000000
 P 1 
   1       0.5241060000      1.0000000000
 P 1 
   1       0.2911700000      1.0000000000
 D 1 
   1      17.8260106717      1.0000000000
 D 1 
   1       9.9033392621      1.0000000000
 D 1 
   1       5.5018551456      1.0000000000
 D 1 
   1       3.0565861920      1.0000000000
 D 1 
   1       1.6981034400      1.0000000000
 D 1 
   1       0.9433908000      1.0000000000
 D 1 
   1       0.5241060000      1.0000000000
 D 1 
   1       0.2911700000      1.0000000000
  end;

 # Auxiliary/C basis set for element : O 
 NewAuxCGTO O 
 S 1 
   1    1064.5157744558      1.0000000000
 S 1 
   1     591.3976524755      1.0000000000
 S 1 
   1     328.5542513753      1.0000000000
 S 1 
   1     182.5301396529      1.0000000000
 S 1 
   1     101.4056331405      1.0000000000
 S 1 
   1      56.3364628558      1.0000000000
 S 1 
   1      31.2980349199      1.0000000000
 S 1 
   1      17.3877971777      1.0000000000
 S 1 
   1       9.6598873210      1.0000000000
 S 1 
   1       5.3666040672      1.0000000000
 S 1 
   1       2.9814467040      1.0000000000
 S 1 
   1       1.6563592800      1.0000000000
 S 1 
   1       0.9201996000      1.0000000000
 S 1 
   1       0.5112220000      1.0000000000
 P 1 
   1     328.5542513753      1.0000000000
 P 1 
   1     182.5301396529      1.0000000000
 P 1 
   1     101.4056331405      1.0000000000
 P 1 
   1      56.3364628558      1.0000000000
 P 1 
   1      31.2980349199      1.0000000000
 P 1 
   1      17.3877971777      1.0000000000
 P 1 
   1       9.6598873210      1.0000000000
 P 1 
   1       5.3666040672      1.0000000000
 P 1 
   1       2.9814467040      1.0000000000
 P 1 
   1       1.6563592800      1.0000000000
 P 1 
   1       0.9201996000      1.0000000000
 P 1 
   1       0.5112220000      1.0000000000
 D 1 
   1      31.2980349199      1.0000000000
 D 1 
   1      17.3877971777      1.0000000000
 D 1 
   1       9.6598873210      1.0000000000
 D 1 
   1       5.3666040672      1.0000000000
 D 1 
   1       2.9814467040      1.0000000000
 D 1 
   1       1.6563592800      1.0000000000
 D 1 
   1       0.9201996000      1.0000000000
 D 1 
   1       0.5112220000      1.0000000000
  end;

----------------------------------
AUXILIARY/JK BASIS SET INFORMATION
----------------------------------
There are 3 groups of distinct atoms

 Group   1 Type C   : 14s12p8d contracted to 14s12p8d pattern {11111111111111/111111111111/11111111}
 Group   2 Type H   : 11s2p contracted to 11s2p pattern {11111111111/11}
 Group   3 Type O   : 14s12p8d contracted to 14s12p8d pattern {11111111111111/111111111111/11111111}

Atom   0C    basis set group =>   1
Atom   1H    basis set group =>   2
Atom   2H    basis set group =>   2
Atom   3C    basis set group =>   1
Atom   4H    basis set group =>   2
Atom   5H    basis set group =>   2
Atom   6O    basis set group =>   3
Atom   7H    basis set group =>   2
Atom   8O    basis set group =>   3
Atom   9H    basis set group =>   2

--------------------------------------
AUXILIARY/JK BASIS SET IN INPUT FORMAT
--------------------------------------

 # Auxiliary/JK basis set for element : H 
 NewAuxJKGTO H 
 S 1 
   1      73.3666746661      1.0000000000
 S 1 
   1      40.7592637034      1.0000000000
 S 1 
   1      22.6440353908      1.0000000000
 S 1 
   1      12.5800196615      1.0000000000
 S 1 
   1       6.9888998120      1.0000000000
 S 1 
   1       3.8827221178      1.0000000000
 S 1 
   1       2.1570678432      1.0000000000
 S 1 
   1       1.1983710240      1.0000000000
 S 1 
   1       0.6657616800      1.0000000000
 S 1 
   1       0.3698676000      1.0000000000
 S 1 
   1       0.2054820000      1.0000000000
 P 1 
   1       2.0300000000      1.0000000000
 P 1 
   1       0.5400000000      1.0000000000
  end;

 # Auxiliary/JK basis set for element : C 
 NewAuxJKGTO C 
 S 1 
   1     606.3022679937      1.0000000000
 S 1 
   1     336.8345933299      1.0000000000
 S 1 
   1     187.1303296277      1.0000000000
 S 1 
   1     103.9612942376      1.0000000000
 S 1 
   1      57.7562745765      1.0000000000
 S 1 
   1      32.0868192091      1.0000000000
 S 1 
   1      17.8260106717      1.0000000000
 S 1 
   1       9.9033392621      1.0000000000
 S 1 
   1       5.5018551456      1.0000000000
 S 1 
   1       3.0565861920      1.0000000000
 S 1 
   1       1.6981034400      1.0000000000
 S 1 
   1       0.9433908000      1.0000000000
 S 1 
   1       0.5241060000      1.0000000000
 S 1 
   1       0.2911700000      1.0000000000
 P 1 
   1     187.1303296277      1.0000000000
 P 1 
   1     103.9612942376      1.0000000000
 P 1 
   1      57.7562745765      1.0000000000
 P 1 
   1      32.0868192091      1.0000000000
 P 1 
   1      17.8260106717      1.0000000000
 P 1 
   1       9.9033392621      1.0000000000
 P 1 
   1       5.5018551456      1.0000000000
 P 1 
   1       3.0565861920      1.0000000000
 P 1 
   1       1.6981034400      1.0000000000
 P 1 
   1       0.9433908000      1.0000000000
 P 1 
   1       0.5241060000      1.0000000000
 P 1 
   1       0.2911700000      1.0000000000
 D 1 
   1      17.8260106717      1.0000000000
 D 1 
   1       9.9033392621      1.0000000000
 D 1 
   1       5.5018551456      1.0000000000
 D 1 
   1       3.0565861920      1.0000000000
 D 1 
   1       1.6981034400      1.0000000000
 D 1 
   1       0.9433908000      1.0000000000
 D 1 
   1       0.5241060000      1.0000000000
 D 1 
   1       0.2911700000      1.0000000000
  end;

 # Auxiliary/JK basis set for element : O 
 NewAuxJKGTO O 
 S 1 
   1    1064.5157744558      1.0000000000
 S 1 
   1     591.3976524755      1.0000000000
 S 1 
   1     328.5542513753      1.0000000000
 S 1 
   1     182.5301396529      1.0000000000
 S 1 
   1     101.4056331405      1.0000000000
 S 1 
   1      56.3364628558      1.0000000000
 S 1 
   1      31.2980349199      1.0000000000
 S 1 
   1      17.3877971777      1.0000000000
 S 1 
   1       9.6598873210      1.0000000000
 S 1 
   1       5.3666040672      1.0000000000
 S 1 
   1       2.9814467040      1.0000000000
 S 1 
   1       1.6563592800      1.0000000000
 S 1 
   1       0.9201996000      1.0000000000
 S 1 
   1       0.5112220000      1.0000000000
 P 1 
   1     328.5542513753      1.0000000000
 P 1 
   1     182.5301396529      1.0000000000
 P 1 
   1     101.4056331405      1.0000000000
 P 1 
   1      56.3364628558      1.0000000000
 P 1 
   1      31.2980349199      1.0000000000
 P 1 
   1      17.3877971777      1.0000000000
 P 1 
   1       9.6598873210      1.0000000000
 P 1 
   1       5.3666040672      1.0000000000
 P 1 
   1       2.9814467040      1.0000000000
 P 1 
   1       1.6563592800      1.0000000000
 P 1 
   1       0.9201996000      1.0000000000
 P 1 
   1       0.5112220000      1.0000000000
 D 1 
   1      31.2980349199      1.0000000000
 D 1 
   1      17.3877971777      1.0000000000
 D 1 
   1       9.6598873210      1.0000000000
 D 1 
   1       5.3666040672      1.0000000000
 D 1 
   1       2.9814467040      1.0000000000
 D 1 
   1       1.6563592800      1.0000000000
 D 1 
   1       0.9201996000      1.0000000000
 D 1 
   1       0.5112220000      1.0000000000
  end;

------------------------------------------------------------------------------
                           ORCA GTO INTEGRAL CALCULATION
                           -- RI-GTO INTEGRALS CHOSEN --
------------------------------------------------------------------------------
------------------------------------------------------------------------------
                   ___                                                        
                  /   \      - P O W E R E D   B Y -                         
                 /     \                                                     
                 |  |  |   _    _      __       _____    __    __             
                 |  |  |  | |  | |    /  \     |  _  \  |  |  /  |          
                  \  \/   | |  | |   /    \    | | | |  |  | /  /          
                 / \  \   | |__| |  /  /\  \   | |_| |  |  |/  /          
                |  |  |   |  __  | /  /__\  \  |    /   |      \           
                |  |  |   | |  | | |   __   |  |    \   |  |\   \          
                \     /   | |  | | |  |  |  |  | |\  \  |  | \   \       
                 \___/    |_|  |_| |__|  |__|  |_| \__\ |__|  \__/        
                                                                              
                      - O R C A' S   B I G   F R I E N D -                    
                                      &                                       
                       - I N T E G R A L  F E E D E R -                       
                                                                              
 v1 FN, 2020, v2 2021                                                         
------------------------------------------------------------------------------


Reading SHARK input file eg_n.SHARKINP.tmp ... ok
----------------------
SHARK INTEGRAL PACKAGE
----------------------

Number of atoms                             ...     10
Number of basis functions                   ...     70
Number of shells                            ...     46
Maximum angular momentum                    ...      1
Integral batch strategy                     ... SHARK/LIBINT Hybrid
RI-J (if used) integral strategy            ... SPLIT-RIJ (Revised 2003 algorithm where possible)
Printlevel                                  ...      1
Contraction scheme used                     ... SEGMENTED contraction
Coulomb Range Separation                    ... NOT USED
Exchange Range Separation                   ... NOT USED
Finite Nucleus Model                        ... NOT USED
Auxiliary Coulomb fitting basis             ... AVAILABLE
   # of basis functions in Aux-J            ...    462
   # of shells in Aux-J                     ...    214
   Maximum angular momentum in Aux-J        ...      2
Auxiliary J/K fitting basis                 ... AVAILABLE
   # of basis functions in Aux-JK           ...    462
   # of shells in Aux-JK                    ...    214
   Maximum angular momentum in Aux-JK       ...      2
Auxiliary Correlation fitting basis         ... AVAILABLE
   # of basis functions in Aux-C            ...    462
   # of shells in Aux-C                     ...    214
   Maximum angular momentum in Aux-C        ...      2
Auxiliary 'external' fitting basis          ... NOT available
Integral threshold                          ...     2.500000e-11
Primitive cut-off                           ...     2.500000e-12
Primitive pair pre-selection threshold      ...     2.500000e-12

Calculating pre-screening integrals         ... done (  0.0 sec) Dimension = 46
Organizing shell pair data                  ... done (  0.0 sec)
Shell pair information
Total number of shell pairs                 ...      1081
Shell pairs after pre-screening             ...      1037
Total number of primitive shell pairs       ...      4567
Primitive shell pairs kept                  ...      3274
          la=0 lb=0:    568 shell pairs
          la=1 lb=0:    394 shell pairs
          la=1 lb=1:     75 shell pairs

Calculating one electron integrals          ... done (  0.0 sec)
Calculating RI/J V-Matrix + Cholesky decomp.... done (  0.0 sec)
Calculating RI/JK V-Matrix + Cholesky decomp... done (  0.0 sec)
Calculating RI/C V-Matrix + Cholesky decomp.... done (  0.0 sec)
Calculating Nuclear repulsion               ... done (  0.0 sec) ENN=    128.675164358448 Eh

SHARK setup successfully completed in   0.1 seconds

Maximum memory used throughout the entire GTOINT-calculation: 7.2 MB
-------------------------------------------------------------------------------
                                 ORCA SCF
-------------------------------------------------------------------------------

------------
SCF SETTINGS
------------
Hamiltonian:
 Density Functional     Method          .... DFT(GTOs)
 Exchange Functional    Exchange        .... B88
   X-Alpha parameter    XAlpha          ....  0.666667
   Becke's b parameter  XBeta           ....  0.004200
 Correlation Functional Correlation     .... LYP
 LDA part of GGA corr.  LDAOpt          .... VWN-5
 Gradients option       PostSCFGGA      .... off
 Hybrid DFT is turned on
   Fraction HF Exchange ScalHFX         ....  0.200000
   Scaling of DF-GGA-X  ScalDFX         ....  0.720000
   Scaling of DF-GGA-C  ScalDFC         ....  0.810000
   Scaling of DF-LDA-C  ScalLDAC        ....  1.000000
   Perturbative correction              ....  0.000000
   Density functional embedding theory  .... OFF
   NL short-range parameter             ....  4.800000
 RI-approximation to the Coulomb term is turned on
   Number of AuxJ basis functions       .... 462
   RIJ-COSX (HFX calculated with COS-X)).... on


General Settings:
 Integral files         IntName         .... eg_n
 Hartree-Fock type      HFTyp           .... UHF
 Total Charge           Charge          ....   -1
 Multiplicity           Mult            ....    2
 Number of Electrons    NEL             ....   35
 Basis Dimension        Dim             ....   70
 Nuclear Repulsion      ENuc            ....    128.6751643584 Eh

Convergence Acceleration:
 DIIS                   CNVDIIS         .... on
   Start iteration      DIISMaxIt       ....    12
   Startup error        DIISStart       ....  0.200000
   # of expansion vecs  DIISMaxEq       ....     5
   Bias factor          DIISBfac        ....   1.050
   Max. coefficient     DIISMaxC        ....  10.000
 Trust-Rad. Augm. Hess. CNVTRAH         .... auto
   Auto Start mean grad. ratio tolernc. ....  1.125000
   Auto Start start iteration           ....    20
   Auto Start num. interpolation iter.  ....    10
   Max. Number of Micro iterations      ....    16
   Max. Number of Macro iterations      .... Maxiter - #DIIS iter
   Number of Davidson start vectors     ....     2
   Converg. threshold I  (grad. norm)   ....   1.000e-05
   Converg. threshold II (energy diff.) ....   1.000e-08
   Grad. Scal. Fac. for Micro threshold ....   0.100
   Minimum threshold for Micro iter.    ....   0.010
   NR start threshold (gradient norm)   ....   0.001
   Initial trust radius                 ....   0.400
   Minimum AH scaling param. (alpha)    ....   1.000
   Maximum AH scaling param. (alpha)    .... 1000.000
   Orbital update algorithm             .... Taylor
   White noise on init. David. guess    .... on
   Maximum white noise                  ....   0.010
   Quad. conv. algorithm                .... NR
 SOSCF                  CNVSOSCF        .... off
 Level Shifting         CNVShift        .... on
   Level shift para.    LevelShift      ....    0.2500
   Turn off err/grad.   ShiftErr        ....    0.0010
 Zerner damping         CNVZerner       .... off
 Static damping         CNVDamp         .... on
   Fraction old density DampFac         ....    0.7000
   Max. Damping (<1)    DampMax         ....    0.9800
   Min. Damping (>=0)   DampMin         ....    0.0000
   Turn off err/grad.   DampErr         ....    0.1000
 Fernandez-Rico         CNVRico         .... off

SCF Procedure:
 Maximum # iterations   MaxIter         ....   125
 SCF integral mode      SCFMode         .... Direct
   Integral package                     .... SHARK and LIBINT hybrid scheme
 Reset frequency        DirectResetFreq ....    20
 Integral Threshold     Thresh          ....  2.500e-11 Eh
 Primitive CutOff       TCut            ....  2.500e-12 Eh

Convergence Tolerance:
 Convergence Check Mode ConvCheckMode   .... Total+1el-Energy
 Convergence forced     ConvForced      .... 0
 Energy Change          TolE            ....  1.000e-08 Eh
 1-El. energy change                    ....  1.000e-05 Eh
 DIIS Error             TolErr          ....  5.000e-07


Diagonalization of the overlap matrix:
Smallest eigenvalue                        ... 3.884e-03
Time for diagonalization                   ...    0.002 sec
Threshold for overlap eigenvalues          ... 1.000e-08
Number of eigenvalues below threshold      ... 0
Time for construction of square roots      ...    0.000 sec
Total time needed                          ...    0.002 sec

Time for model grid setup =    0.033 sec

------------------------------
INITIAL GUESS: MODEL POTENTIAL
------------------------------
Loading Hartree-Fock densities                     ... done
Calculating cut-offs                               ... done
Initializing the effective Hamiltonian             ... done
Setting up the integral package (SHARK)            ... done
Starting the Coulomb interaction                   ... done (   0.0 sec)
Reading the grid                                   ... done
Mapping shells                                     ... done
Starting the XC term evaluation                    ... done (   0.0 sec)
  promolecular density results
     # of electrons  =     33.997755260
     EX              =    -28.441607533
     EC              =     -1.147022830
     EX+EC           =    -29.588630363
Transforming the Hamiltonian                       ... done (   0.0 sec)
Diagonalizing the Hamiltonian                      ... done (   0.0 sec)
Back transforming the eigenvectors                 ... done (   0.0 sec)
Now organizing SCF variables                       ... done
                      ------------------
                      INITIAL GUESS DONE (   0.1 sec)
                      ------------------
-------------------
DFT GRID GENERATION
-------------------

General Integration Accuracy     IntAcc      ... 4.959
Radial Grid Type                 RadialGrid  ... OptM3 with GC (2021)
Angular Grid (max. ang.)         AngularGrid ... 6 (Lebedev-590)
Angular grid pruning method      GridPruning ... 4 (adaptive)
Weight generation scheme         WeightScheme... Becke
Basis function cutoff            BFCut       ... 1.0000e-11
Integration weight cutoff        WCut        ... 1.0000e-14
Angular grids for H and He will be reduced by one unit
Partially contracted basis set               ... off
Rotationally invariant grid construction     ... off

Total number of grid points                  ...   110788
Total number of batches                      ...     1735
Average number of points per batch           ...       63
Average number of grid points per atom       ...    11079
Time for grid setup =    0.890 sec

--------------------
COSX GRID GENERATION
--------------------

GRIDX 1
-------
General Integration Accuracy     IntAcc      ... 4.020
Radial Grid Type                 RadialGrid  ... OptM3 with GC (2021)
Angular Grid (max. ang.)         AngularGrid ... 2 (Lebedev-110)
Angular grid pruning method      GridPruning ... 4 (adaptive)
Weight generation scheme         WeightScheme... Becke
Basis function cutoff            BFCut       ... 1.0000e-11
Integration weight cutoff        WCut        ... 1.0000e-14
Angular grids for H and He will be reduced by one unit
Partially contracted basis set               ... on
Rotationally invariant grid construction     ... off

Total number of grid points                  ...    12068
Total number of batches                      ...      195
Average number of points per batch           ...       61
Average number of grid points per atom       ...     1207
UseSFitting                                  ... on

GRIDX 2
-------
General Integration Accuracy     IntAcc      ... 4.338
Radial Grid Type                 RadialGrid  ... OptM3 with GC (2021)
Angular Grid (max. ang.)         AngularGrid ... 3 (Lebedev-194)
Angular grid pruning method      GridPruning ... 4 (adaptive)
Weight generation scheme         WeightScheme... Becke
Basis function cutoff            BFCut       ... 1.0000e-11
Integration weight cutoff        WCut        ... 1.0000e-14
Angular grids for H and He will be reduced by one unit
Partially contracted basis set               ... on
Rotationally invariant grid construction     ... off

Total number of grid points                  ...    26439
Total number of batches                      ...      419
Average number of points per batch           ...       63
Average number of grid points per atom       ...     2644
UseSFitting                                  ... on

GRIDX 3
-------
General Integration Accuracy     IntAcc      ... 4.871
Radial Grid Type                 RadialGrid  ... OptM3 with GC (2021)
Angular Grid (max. ang.)         AngularGrid ... 4 (Lebedev-302)
Angular grid pruning method      GridPruning ... 4 (adaptive)
Weight generation scheme         WeightScheme... Becke
Basis function cutoff            BFCut       ... 1.0000e-11
Integration weight cutoff        WCut        ... 1.0000e-14
Angular grids for H and He will be reduced by one unit
Partially contracted basis set               ... on
Rotationally invariant grid construction     ... off

Total number of grid points                  ...    52067
Total number of batches                      ...      818
Average number of points per batch           ...       63
Average number of grid points per atom       ...     5207
UseSFitting                                  ... on

Time for X-Grid setup             =    0.390 sec

--------------
SCF ITERATIONS
--------------
ITER       Energy         Delta-E        Max-DP      RMS-DP      [F,P]     Damp
               ***  Starting incremental Fock matrix formation  ***
  0   -229.7219922926   0.000000000000 0.13493861  0.00504596  0.1805989 0.7000
  1   -229.8627957137  -0.140803421163 0.13698216  0.00433257  0.0699541 0.7000
                               ***Turning on DIIS***
  2   -229.9132299708  -0.050434257061 0.33183262  0.00945795  0.0141460 0.0000
  3   -229.9971177747  -0.083887803939 0.03824478  0.00164209  0.0403407 0.0000
  4   -230.0159677915  -0.018850016711 0.01071419  0.00062434  0.0099681 0.0000
  5   -230.0179768066  -0.002009015115 0.01356053  0.00048014  0.0051926 0.0000
  6   -230.0183599565  -0.000383149915 0.01269977  0.00040345  0.0011909 0.0000
  7   -230.0184642426  -0.000104286075 0.03363169  0.00104696  0.0004964 0.0000
               *** Restarting incremental Fock matrix formation ***
                                   *** Resetting DIIS ***
  8   -230.0185449004  -0.000080657853 0.01751670  0.00041992  0.0004747 0.0000
  9   -230.0185427099   0.000002190548 0.01997607  0.00040900  0.0004844 0.0000
 10   -230.0185500487  -0.000007338855 0.00624029  0.00012828  0.0004315 0.0000
 11   -230.0185534906  -0.000003441922 0.00242799  0.00009652  0.0000803 0.0000
 12   -230.0185539324  -0.000000441743 0.00087409  0.00003331  0.0000383 0.0000
 13   -230.0185540010  -0.000000068663 0.00041310  0.00001243  0.0000222 0.0000
 14   -230.0185540126  -0.000000011507 0.00033112  0.00000977  0.0000107 0.0000
 15   -230.0185540166  -0.000000004015 0.00016941  0.00000511  0.0000062 0.0000
 16   -230.0185540173  -0.000000000686 0.00006840  0.00000261  0.0000020 0.0000
                            ***DIIS convergence achieved***

               *****************************************************
               *                     SUCCESS                       *
               *           SCF CONVERGED AFTER  17 CYCLES          *
               *****************************************************

Old exchange energy                            =     -5.818225565 Eh
New exchange energy                            =     -5.818226913 Eh
Exchange energy change after final integration =     -0.000001348 Eh
Total energy after final integration           =   -230.018555363 Eh
Final COS-X integration done in                =     1.315 sec

----------------
TOTAL SCF ENERGY
----------------

Total Energy       :         -230.01855536 Eh           -6259.12310 eV

Components:
Nuclear Repulsion  :          128.67516436 Eh            3501.42923 eV
Electronic Energy  :         -358.69371972 Eh           -9760.55233 eV
One Electron Energy:         -575.49743422 Eh          -15660.08133 eV
Two Electron Energy:          216.80371450 Eh            5899.52900 eV
Max COSX asymmetry :            0.00000017 Eh               0.00000 eV

Virial components:
Potential Energy   :         -460.09755423 Eh          -12519.89095 eV
Kinetic Energy     :          230.07899887 Eh            6260.76785 eV
Virial Ratio       :            1.99973729


DFT components:
N(Alpha)           :       18.000004151300 electrons
N(Beta)            :       17.000002607590 electrons
N(Total)           :       35.000006758890 electrons
E(X)               :      -23.194457935373 Eh       
E(C)               :       -1.381334968296 Eh       
E(XC)              :      -24.575792903669 Eh       
DFET-embed. en.    :        0.000000000000 Eh       

---------------
SCF CONVERGENCE
---------------

  Last Energy change         ...    1.9533e-09  Tolerance :   1.0000e-08
  Last MAX-Density change    ...    0.0000e+00  Tolerance :   1.0000e-07
  Last RMS-Density change    ...    0.0000e+00  Tolerance :   5.0000e-09
  Last DIIS Error            ...    9.6109e-07  Tolerance :   5.0000e-07

             **** THE GBW FILE WAS UPDATED (eg_n.gbw) ****
             **** DENSITY eg_n.scfp WAS UPDATED ****
             **** ENERGY FILE WAS UPDATED (eg_n.en.tmp) ****
----------------------
UHF SPIN CONTAMINATION
----------------------

Warning: in a DFT calculation there is little theoretical justification to 
         calculate <S**2> as in Hartree-Fock theory. We will do it anyways
         but you should keep in mind that the values have only limited relevance

Expectation value of <S**2>     :     0.750619
Ideal value S*(S+1) for S=0.5   :     0.750000
Deviation                       :     0.000619

             **** THE GBW FILE WAS UPDATED (eg_n.gbw) ****
             **** DENSITY eg_n.scfp WAS UPDATED ****
----------------
ORBITAL ENERGIES
----------------
                 SPIN UP ORBITALS
  NO   OCC          E(Eh)            E(eV) 
   0   1.0000     -18.905872      -514.4549 
   1   1.0000     -18.895606      -514.1756 
   2   1.0000     -10.028611      -272.8924 
   3   1.0000     -10.024776      -272.7880 
   4   1.0000      -0.827517       -22.5179 
   5   1.0000      -0.812982       -22.1224 
   6   1.0000      -0.545089       -14.8326 
   7   1.0000      -0.437887       -11.9155 
   8   1.0000      -0.323875        -8.8131 
   9   1.0000      -0.315707        -8.5908 
  10   1.0000      -0.254047        -6.9130 
  11   1.0000      -0.236984        -6.4487 
  12   1.0000      -0.218927        -5.9573 
  13   1.0000      -0.136299        -3.7089 
  14   1.0000      -0.126502        -3.4423 
  15   1.0000      -0.094569        -2.5734 
  16   1.0000      -0.059046        -1.6067 
  17   1.0000       0.159915         4.3515 
  18   0.0000       0.184287         5.0147 
  19   0.0000       0.238145         6.4803 
  20   0.0000       0.244170         6.6442 
  21   0.0000       0.280841         7.6421 
  22   0.0000       0.298009         8.1092 
  23   0.0000       0.345851         9.4111 
  24   0.0000       0.400270        10.8919 
  25   0.0000       0.424336        11.5468 
  26   0.0000       0.503212        13.6931 
  27   0.0000       0.513770        13.9804 
  28   0.0000       0.570864        15.5340 
  29   0.0000       0.597734        16.2652 
  30   0.0000       0.645933        17.5767 
  31   0.0000       0.654442        17.8083 
  32   0.0000       0.676674        18.4132 
  33   0.0000       0.690439        18.7878 
  34   0.0000       0.721595        19.6356 
  35   0.0000       0.753407        20.5012 
  36   0.0000       0.763848        20.7854 
  37   0.0000       0.782833        21.3020 
  38   0.0000       0.924887        25.1675 
  39   0.0000       1.004579        27.3360 
  40   0.0000       1.053671        28.6718 
  41   0.0000       1.056632        28.7524 
  42   0.0000       1.121562        30.5192 
  43   0.0000       1.134987        30.8846 
  44   0.0000       1.162689        31.6384 
  45   0.0000       1.264977        34.4218 
  46   0.0000       1.607132        43.7323 
  47   0.0000       1.702869        46.3374 
  48   0.0000       2.377397        64.6923 
  49   0.0000       2.397509        65.2395 
  50   0.0000       2.420378        65.8618 
  51   0.0000       2.427524        66.0563 
  52   0.0000       2.433304        66.2136 
  53   0.0000       2.451426        66.7067 
  54   0.0000       2.896820        78.8265 
  55   0.0000       3.000865        81.6577 
  56   0.0000       3.008440        81.8638 
  57   0.0000       3.015075        82.0444 
  58   0.0000       3.175511        86.4100 
  59   0.0000       3.215895        87.5090 
  60   0.0000       5.028442       136.8309 
  61   0.0000       5.053776       137.5202 
  62   0.0000       5.080865       138.2574 
  63   0.0000       5.095599       138.6583 
  64   0.0000       5.239081       142.5626 
  65   0.0000       5.251403       142.8979 
  66   0.0000      23.475036       638.7882 
  67   0.0000      23.671111       644.1237 
  68   0.0000      50.006029      1360.7332 
  69   0.0000      50.044804      1361.7883 

                 SPIN DOWN ORBITALS
  NO   OCC          E(Eh)            E(eV) 
   0   1.0000     -18.902684      -514.3682 
   1   1.0000     -18.892046      -514.0787 
   2   1.0000     -10.028167      -272.8803 
   3   1.0000     -10.024266      -272.7741 
   4   1.0000      -0.819855       -22.3094 
   5   1.0000      -0.804352       -21.8875 
   6   1.0000      -0.540852       -14.7173 
   7   1.0000      -0.435020       -11.8375 
   8   1.0000      -0.320796        -8.7293 
   9   1.0000      -0.310252        -8.4424 
  10   1.0000      -0.251107        -6.8330 
  11   1.0000      -0.234896        -6.3918 
  12   1.0000      -0.216818        -5.8999 
  13   1.0000      -0.132559        -3.6071 
  14   1.0000      -0.122484        -3.3330 
  15   1.0000      -0.091054        -2.4777 
  16   1.0000      -0.055712        -1.5160 
  17   0.0000       0.206188         5.6107 
  18   0.0000       0.220395         5.9972 
  19   0.0000       0.240631         6.5479 
  20   0.0000       0.245599         6.6831 
  21   0.0000       0.293070         7.9749 
  22   0.0000       0.300372         8.1735 
  23   0.0000       0.357533         9.7290 
  24   0.0000       0.406625        11.0648 
  25   0.0000       0.427111        11.6223 
  26   0.0000       0.504004        13.7147 
  27   0.0000       0.515862        14.0373 
  28   0.0000       0.580883        15.8066 
  29   0.0000       0.608743        16.5648 
  30   0.0000       0.648892        17.6572 
  31   0.0000       0.662066        18.0157 
  32   0.0000       0.683956        18.6114 
  33   0.0000       0.694750        18.9051 
  34   0.0000       0.723468        19.6866 
  35   0.0000       0.755627        20.5617 
  36   0.0000       0.764640        20.8069 
  37   0.0000       0.784718        21.3533 
  38   0.0000       0.927859        25.2483 
  39   0.0000       1.008801        27.4509 
  40   0.0000       1.057907        28.7871 
  41   0.0000       1.061183        28.8763 
  42   0.0000       1.127664        30.6853 
  43   0.0000       1.139844        31.0167 
  44   0.0000       1.169276        31.8176 
  45   0.0000       1.270004        34.5586 
  46   0.0000       1.612365        43.8747 
  47   0.0000       1.707974        46.4763 
  48   0.0000       2.384887        64.8961 
  49   0.0000       2.405490        65.4567 
  50   0.0000       2.421491        65.8921 
  51   0.0000       2.429552        66.1115 
  52   0.0000       2.433378        66.2156 
  53   0.0000       2.454344        66.7861 
  54   0.0000       2.900225        78.9191 
  55   0.0000       3.001917        81.6863 
  56   0.0000       3.009320        81.8878 
  57   0.0000       3.016181        82.0745 
  58   0.0000       3.178303        86.4860 
  59   0.0000       3.217299        87.5472 
  60   0.0000       5.031108       136.9034 
  61   0.0000       5.056577       137.5965 
  62   0.0000       5.085371       138.3800 
  63   0.0000       5.101043       138.8064 
  64   0.0000       5.242199       142.6475 
  65   0.0000       5.255390       143.0064 
  66   0.0000      23.475586       638.8032 
  67   0.0000      23.671701       644.1397 
  68   0.0000      50.009790      1360.8356 
  69   0.0000      50.048693      1361.8942 

                    ********************************
                    * MULLIKEN POPULATION ANALYSIS *
                    ********************************

--------------------------------------------
MULLIKEN ATOMIC CHARGES AND SPIN POPULATIONS
--------------------------------------------
   0 C :   -0.071199    0.031905
   1 H :    0.084992    0.037266
   2 H :    0.118072   -0.006978
   3 C :   -0.082471    0.044617
   4 H :    0.102151    0.012636
   5 H :    0.125212   -0.006137
   6 O :   -0.560469   -0.031271
   7 H :   -0.109698    0.513461
   8 O :   -0.560920   -0.027587
   9 H :   -0.045670    0.432088
Sum of atomic charges         :   -1.0000000
Sum of atomic spin populations:    1.0000000

-----------------------------------------------------
MULLIKEN REDUCED ORBITAL CHARGES AND SPIN POPULATIONS
-----------------------------------------------------
CHARGE
  0 C s       :     3.245670  s :     3.245670
      pz      :     0.942929  p :     2.825530
      px      :     0.849875
      py      :     1.032726
  1 H s       :     0.915008  s :     0.915008
  2 H s       :     0.881928  s :     0.881928
  3 C s       :     3.258289  s :     3.258289
      pz      :     0.950133  p :     2.824182
      px      :     0.869534
      py      :     1.004515
  4 H s       :     0.897849  s :     0.897849
  5 H s       :     0.874788  s :     0.874788
  6 O s       :     3.855224  s :     3.855224
      pz      :     1.796621  p :     4.705245
      px      :     1.296384
      py      :     1.612240
  7 H s       :     1.109698  s :     1.109698
  8 O s       :     3.855176  s :     3.855176
      pz      :     1.854400  p :     4.705744
      px      :     1.568197
      py      :     1.283147
  9 H s       :     1.045670  s :     1.045670

SPIN
  0 C s       :    -0.032253  s :    -0.032253
      pz      :     0.017513  p :     0.064159
      px      :     0.007678
      py      :     0.038968
  1 H s       :     0.037266  s :     0.037266
  2 H s       :    -0.006978  s :    -0.006978
  3 C s       :    -0.018991  s :    -0.018991
      pz      :     0.021378  p :     0.063608
      px      :     0.059864
      py      :    -0.017634
  4 H s       :     0.012636  s :     0.012636
  5 H s       :    -0.006137  s :    -0.006137
  6 O s       :    -0.040066  s :    -0.040066
      pz      :    -0.003505  p :     0.008795
      px      :    -0.014011
      py      :     0.026312
  7 H s       :     0.513461  s :     0.513461
  8 O s       :    -0.037310  s :    -0.037310
      pz      :     0.004558  p :     0.009723
      px      :     0.013145
      py      :    -0.007980
  9 H s       :     0.432088  s :     0.432088


                     *******************************
                     * LOEWDIN POPULATION ANALYSIS *
                     *******************************

-------------------------------------------
LOEWDIN ATOMIC CHARGES AND SPIN POPULATIONS
-------------------------------------------
   0 C :   -0.027804    0.056818
   1 H :    0.023339    0.018376
   2 H :    0.034043   -0.002090
   3 C :   -0.023761    0.049782
   4 H :    0.027873    0.006004
   5 H :    0.040639   -0.002269
   6 O :   -0.473782    0.107296
   7 H :   -0.094422    0.366197
   8 O :   -0.461887    0.094603
   9 H :   -0.044238    0.305284

----------------------------------------------------
LOEWDIN REDUCED ORBITAL CHARGES AND SPIN POPULATIONS
----------------------------------------------------
CHARGE
  0 C s       :     2.915779  s :     2.915779
      pz      :     1.070604  p :     3.112025
      px      :     0.973428
      py      :     1.067992
  1 H s       :     0.976661  s :     0.976661
  2 H s       :     0.965957  s :     0.965957
  3 C s       :     2.916934  s :     2.916934
      pz      :     1.076834  p :     3.106827
      px      :     0.970465
      py      :     1.059527
  4 H s       :     0.972127  s :     0.972127
  5 H s       :     0.959361  s :     0.959361
  6 O s       :     3.632701  s :     3.632701
      pz      :     1.807158  p :     4.841081
      px      :     1.369719
      py      :     1.664203
  7 H s       :     1.094422  s :     1.094422
  8 O s       :     3.624681  s :     3.624681
      pz      :     1.860594  p :     4.837206
      px      :     1.633641
      py      :     1.342971
  9 H s       :     1.044238  s :     1.044238

SPIN
  0 C s       :     0.001436  s :     0.001436
      pz      :     0.007337  p :     0.055382
      px      :     0.026490
      py      :     0.021555
  1 H s       :     0.018376  s :     0.018376
  2 H s       :    -0.002090  s :    -0.002090
  3 C s       :     0.000307  s :     0.000307
      pz      :     0.007342  p :     0.049475
      px      :     0.034710
      py      :     0.007422
  4 H s       :     0.006004  s :     0.006004
  5 H s       :    -0.002269  s :    -0.002269
  6 O s       :     0.072063  s :     0.072063
      pz      :    -0.000934  p :     0.035233
      px      :    -0.002126
      py      :     0.038293
  7 H s       :     0.366197  s :     0.366197
  8 O s       :     0.062616  s :     0.062616
      pz      :     0.005364  p :     0.031987
      px      :     0.015149
      py      :     0.011474
  9 H s       :     0.305284  s :     0.305284


                      *****************************
                      * MAYER POPULATION ANALYSIS *
                      *****************************

  NA   - Mulliken gross atomic population
  ZA   - Total nuclear charge
  QA   - Mulliken gross atomic charge
  VA   - Mayer's total valence
  BVA  - Mayer's bonded valence
  FA   - Mayer's free valence

  ATOM       NA         ZA         QA         VA         BVA        FA
  0 C      6.0712     6.0000    -0.0712     3.6025     3.6008     0.0018
  1 H      0.9150     1.0000     0.0850     0.9756     0.9742     0.0015
  2 H      0.8819     1.0000     0.1181     0.9388     0.9387     0.0000
  3 C      6.0825     6.0000    -0.0825     3.6138     3.6113     0.0024
  4 H      0.8978     1.0000     0.1022     0.9540     0.9538     0.0002
  5 H      0.8748     1.0000     0.1252     0.9392     0.9392     0.0000
  6 O      8.5605     8.0000    -0.5605     1.5454     1.5408     0.0046
  7 H      1.1097     1.0000    -0.1097     1.3778     1.1173     0.2606
  8 O      8.5609     8.0000    -0.5609     1.5684     1.5647     0.0037
  9 H      1.0457     1.0000    -0.0457     1.3312     1.1468     0.1844

  Mayer bond orders larger than 0.100000
B(  0-C ,  1-H ) :   0.9141 B(  0-C ,  2-H ) :   0.9411 B(  0-C ,  3-C ) :   0.8625 
B(  0-C ,  6-O ) :   0.8967 B(  3-C ,  4-H ) :   0.9263 B(  3-C ,  5-H ) :   0.9438 
B(  3-C ,  8-O ) :   0.8724 B(  6-O ,  7-H ) :   0.6285 B(  7-H ,  9-H ) :   0.4113 
B(  8-O ,  9-H ) :   0.6664 

-------
TIMINGS
-------

Total SCF time: 0 days 0 hours 0 min 17 sec 

Total time                  ....      17.575 sec
Sum of individual times     ....      17.494 sec  ( 99.5%)

Fock matrix formation       ....      16.079 sec  ( 91.5%)
  Split-RI-J                ....       0.564 sec  (  3.5% of F)
  Chain of spheres X        ....      10.201 sec  ( 63.4% of F)
  XC integration            ....       5.309 sec  ( 33.0% of F)
    Basis function eval.    ....       1.531 sec  ( 28.8% of XC)
    Density eval.           ....       1.748 sec  ( 32.9% of XC)
    XC-Functional eval.     ....       0.691 sec  ( 13.0% of XC)
    XC-Potential eval.      ....       1.124 sec  ( 21.2% of XC)
Diagonalization             ....       0.015 sec  (  0.1%)
Density matrix formation    ....       0.001 sec  (  0.0%)
Population analysis         ....       0.003 sec  (  0.0%)
Initial guess               ....       0.039 sec  (  0.2%)
Orbital Transformation      ....       0.000 sec  (  0.0%)
Orbital Orthonormalization  ....       0.000 sec  (  0.0%)
DIIS solution               ....       0.045 sec  (  0.3%)
Grid generation             ....       1.313 sec  (  7.5%)

Maximum memory used throughout the entire SCF-calculation: 49.8 MB


-------------------------------------------------------------------------------
                          DFT DISPERSION CORRECTION                            
                                                                               
                              DFTD3 V3.1  Rev 1                                
                          USING Becke-Johnson damping                          
-------------------------------------------------------------------------------
The B3LYP functional is recognized
Active option DFTDOPT                   ...         4   

molecular C6(AA) [au] = 644.667754 


            DFT-D V3
 parameters
 s6 scaling factor         :     1.0000 
 a1 scaling factor         :     0.3981 
 s8 scaling factor         :     1.9889 
 a2 scaling factor         :     4.4211 
 ad hoc parameters k1-k3   :    16.0000     1.3333    -4.0000 

 Edisp/kcal,au: -5.458832046762  -0.008699201670 
 E6   /kcal   :  -2.747572763 
 E8   /kcal   :  -2.711259284 
 % E8         :  49.667387837 

-------------------------   ----------------
Dispersion correction           -0.008699202
-------------------------   ----------------


-------------------------   --------------------
FINAL SINGLE POINT ENERGY      -230.027254565026
-------------------------   --------------------

------------------------------------------------------------------------------
                         ORCA SCF GRADIENT CALCULATION
------------------------------------------------------------------------------

 ... reading COSX grid (gridx3)
Gradient of the Kohn-Sham DFT energy:
Kohn-Sham wavefunction type      ... UKS
Hartree-Fock exchange scaling    ...    0.200
Number of operators              ...    2
Number of atoms                  ...   10
Basis set dimensions             ...   70
Integral neglect threshold       ... 2.5e-11
Integral primitive cutoff        ... 2.5e-12
SHARK Integral package           ... ON

Nuc. rep. gradient       (SHARK) ... done (  0.0 sec)
HCore & Overlap gradient (SHARK) ... done (  0.0 sec)
RI-J gradient            (SHARK) ... done (  0.1 sec)
COSX-gradient                    ... done (  1.8 sec)
Exchange-correlation gradient    ... done
Dispersion correction            ... done

------------------
CARTESIAN GRADIENT
------------------

   1   C   :   -0.008820747   -0.003383577   -0.010365255
   2   H   :   -0.000770637   -0.006097874   -0.001679168
   3   H   :   -0.001966322    0.000166235   -0.005875697
   4   C   :    0.010756970    0.005427010    0.011890770
   5   H   :    0.006327476    0.000212590    0.004337620
   6   H   :   -0.001728779   -0.000786144    0.004284731
   7   O   :   -0.010505605    0.041560510   -0.004779657
   8   H   :    0.032687014   -0.027600081    0.015893787
   9   O   :   -0.027045579    0.029809696   -0.013793805
  10   H   :    0.001077666   -0.039300998    0.000057127

Difference to translation invariance:
           :    0.0000114586    0.0000073652   -0.0000295474

Difference to rotation invariance:
           :   -0.0001080698   -0.0002376567    0.0001495948

Norm of the cartesian gradient     ...    0.0891207956
RMS gradient                       ...    0.0162711567
MAX gradient                       ...    0.0415605098

-------
TIMINGS
-------

Total SCF gradient time            ...        4.286 sec

One electron gradient       ....       0.012 sec  (  0.3%)
RI-J Coulomb gradient       ....       0.115 sec  (  2.7%)
COSX gradient               ....       1.833 sec  ( 42.8%)
XC gradient                 ....       2.199 sec  ( 51.3%)

Maximum memory used throughout the entire SCFGRAD-calculation: 37.6 MB
------------------------------------------------------------------------------
                         ORCA GEOMETRY RELAXATION STEP
------------------------------------------------------------------------------

Reading the OPT-File                    .... done
Getting information on internals        .... done
Copying old internal coords+grads       .... done
Making the new internal coordinates     .... (new redundants).... done
Validating the new internal coordinates .... (new redundants).... done
Calculating the B-matrix                .... done
Calculating the G,G- and P matrices     .... done
Transforming gradient to internals      .... done
Projecting the internal gradient        .... done
Number of atoms                         ....  10
Number of internal coordinates          ....  38
Current Energy                          ....  -230.027254565 Eh
Current gradient norm                   ....     0.089120796 Eh/bohr
Maximum allowed component of the step   ....  0.300
Current trust radius                    ....  0.300
Evaluating the initial hessian          ....  (Almloef) done
Projecting the Hessian                  .... done
Forming the augmented Hessian           .... done
Diagonalizing the augmented Hessian     .... done
Last element of RFO vector              ....  0.973713474
Lowest eigenvalues of augmented Hessian:
 -0.013795900  0.011587614  0.017090309  0.017130532  0.101378896
Length of the computed step             ....  0.233925446
The final length of the internal step   ....  0.233925446
Converting the step to cartesian space:
 Initial RMS(Int)=    0.0379477183
Transforming coordinates:
 Iter   0:  RMS(Cart)=    0.0695906429 RMS(Int)=    0.0382247286
 Iter   1:  RMS(Cart)=    0.0019096174 RMS(Int)=    0.0013359348
 Iter   2:  RMS(Cart)=    0.0000900491 RMS(Int)=    0.0000805944
 Iter   3:  RMS(Cart)=    0.0000063356 RMS(Int)=    0.0000035186
 Iter   4:  RMS(Cart)=    0.0000003928 RMS(Int)=    0.0000003970
 Iter   5:  RMS(Cart)=    0.0000000233 RMS(Int)=    0.0000000156
done
Storing new coordinates                 .... done

                                .--------------------.
          ----------------------|Geometry convergence|-------------------------
          Item                value                   Tolerance       Converged
          ---------------------------------------------------------------------
          RMS gradient        0.0126095022            0.0001000000      NO
          MAX gradient        0.0453643152            0.0003000000      NO
          RMS step            0.0379477183            0.0020000000      NO
          MAX step            0.0868759547            0.0040000000      NO
          ........................................................
          Max(Bonds)      0.0460      Max(Angles)    1.95
          Max(Dihed)        4.97      Max(Improp)    0.00
          ---------------------------------------------------------------------

The optimization has not yet converged - more geometry cycles are needed


    ---------------------------------------------------------------------------
                         Redundant Internal Coordinates
                            (Angstroem and degrees)

        Definition                    Value    dE/dq     Step     New-Value
    ----------------------------------------------------------------------------
     1. B(H   1,C   0)                1.0951 -0.005067  0.0073    1.1024   
     2. B(H   2,C   0)                1.0951  0.000475 -0.0007    1.0944   
     3. B(C   3,C   0)                1.5300  0.006789 -0.0093    1.5207   
     4. B(H   4,C   3)                1.0951 -0.003422  0.0049    1.1000   
     5. B(H   5,C   3)                1.0951  0.002298 -0.0033    1.0918   
     6. B(O   6,C   0)                1.4400 -0.028441  0.0314    1.4714   
     7. B(H   7,O   6)                0.9661 -0.045364  0.0460    1.0121   
     8. B(O   8,C   3)                1.4400 -0.030364  0.0335    1.4735   
     9. B(H   9,O   8)                0.9661 -0.039007  0.0395    1.0057   
    10. A(H   1,C   0,C   3)          111.38  0.002857   -0.35    111.03   
    11. A(H   2,C   0,O   6)          107.49 -0.000933   -0.01    107.49   
    12. A(H   1,C   0,O   6)          107.49 -0.002358    1.22    108.72   
    13. A(H   1,C   0,H   2)          107.49 -0.003295    0.44    107.94   
    14. A(C   3,C   0,O   6)          111.38 -0.004211    0.75    112.13   
    15. A(H   2,C   0,C   3)          111.38  0.007521   -1.95    109.43   
    16. A(H   4,C   3,O   8)          107.49 -0.003614    1.89    109.38   
    17. A(H   4,C   3,H   5)          107.49 -0.003822    0.25    107.75   
    18. A(C   0,C   3,O   8)          111.38 -0.010396    1.81    113.19   
    19. A(C   0,C   3,H   5)          111.38  0.005943   -1.79    109.59   
    20. A(C   0,C   3,H   4)          111.38  0.007099   -0.93    110.45   
    21. A(H   5,C   3,O   8)          107.49  0.004610   -1.17    106.32   
    22. A(C   0,O   6,H   7)          109.00 -0.008765    1.38    110.37   
    23. A(C   3,O   8,H   9)          109.00 -0.009084    1.43    110.42   
    24. D(H   4,C   3,C   0,O   6)    -60.00 -0.000814   -1.98    -61.98   
    25. D(H   4,C   3,C   0,H   2)    180.00 -0.001875   -1.16    178.84   
    26. D(H   5,C   3,C   0,H   1)    180.00 -0.000737   -1.68    178.32   
    27. D(H   5,C   3,C   0,O   6)     60.00  0.003177   -3.50     56.50   
    28. D(O   8,C   3,C   0,H   1)    -60.00  0.002098   -3.15    -63.15   
    29. D(H   4,C   3,C   0,H   1)     60.00 -0.004728   -0.16     59.84   
    30. D(O   8,C   3,C   0,H   2)     60.00  0.004951   -4.15     55.85   
    31. D(O   8,C   3,C   0,O   6)    180.00  0.006012   -4.97    175.03   
    32. D(H   5,C   3,C   0,H   2)    -60.00  0.002116   -2.68    -62.68   
    33. D(H   7,O   6,C   0,C   3)    101.89 -0.002832    2.03    103.91   
    34. D(H   7,O   6,C   0,H   2)   -135.84  0.003266    0.07   -135.77   
    35. D(H   7,O   6,C   0,H   1)    -20.39 -0.002202    1.19    -19.20   
    36. D(H   9,O   8,C   3,H   5)   -159.61  0.002413   -0.42   -160.04   
    37. D(H   9,O   8,C   3,H   4)    -44.16 -0.001528    0.23    -43.93   
    38. D(H   9,O   8,C   3,C   0)     78.11 -0.001563    1.45     79.56   
    ----------------------------------------------------------------------------

         *************************************************************
         *                GEOMETRY OPTIMIZATION CYCLE   2            *
         *************************************************************
---------------------------------
CARTESIAN COORDINATES (ANGSTROEM)
---------------------------------
  C     -1.829846    0.012007   -1.699961
  H     -1.843019    1.038811   -2.100855
  H     -0.925553   -0.481859   -2.068775
  C     -1.817154    0.020393   -0.179323
  H     -2.710170    0.532115    0.208828
[...]
     18       0.000000   0.000000   0.000000   0.000000   0.000000   0.000000
     19       0.000000   0.000000   0.000000   0.000000   0.000000   0.000000
     20       0.000000   0.000000   0.000000   0.000000   0.000000   0.000000
     21       0.000000   0.000000   0.000000   0.000000   0.000000   0.000000
     22       0.000000   0.000000   0.000000   0.000000   0.000000   0.000000
     23       0.000000   0.000000   0.000000   0.000000   0.000000   0.000000
     24       0.000000   0.000000   0.000000   0.000000   0.000000   0.000000
     25       0.000000   0.000000   0.000000   0.000000   0.000000   0.000000
     26       0.000000   0.000000   0.000000   0.000000   0.000000   0.000000
     27       0.000000   0.000000   0.000000   0.000000   0.000000   0.000000
     28       0.000000   0.000000   0.000000   0.000000   0.000000   0.000000
     29       0.000000   0.000000   0.000000   0.000000   0.000000   0.000000
                  6          7          8          9         10         11    
      0      -0.134387   0.022592   0.039823  -0.120492  -0.086502  -0.021123
      1       0.178003  -0.018740  -0.021383  -0.074192  -0.089474   0.054626
      2      -0.025424  -0.005556   0.000982   0.205247  -0.057196   0.005363
      3      -0.392230   0.017430   0.151249  -0.070998  -0.075931   0.374395
      4       0.127489  -0.022420  -0.014318  -0.021455  -0.124731  -0.010793
      5      -0.120556  -0.021847  -0.010673   0.353807  -0.154665  -0.322954
      6      -0.055785   0.005904   0.044332  -0.060478  -0.180853  -0.037244
      7       0.392864  -0.033932  -0.076930   0.010661  -0.203047  -0.304397
      8       0.013891  -0.034639   0.070944   0.307995  -0.173266   0.359015
      9      -0.135345   0.014005  -0.045113  -0.117837   0.086468  -0.021219
     10       0.178457  -0.014144   0.022293  -0.075740   0.089343   0.054608
     11      -0.025425  -0.005152   0.004236   0.205121   0.057228   0.005181
     12      -0.056938  -0.002981  -0.045398  -0.058008   0.180692  -0.037539
     13       0.394604  -0.017530   0.079820   0.005109   0.202757  -0.304530
     14       0.012427  -0.047487  -0.056305   0.311917   0.173656   0.358683
     15      -0.395365  -0.013311  -0.150157  -0.061073   0.076313   0.374755
     16       0.127613  -0.019007   0.017454  -0.022475   0.124731  -0.010764
     17      -0.120190  -0.018207   0.022504   0.352627   0.154862  -0.323305
     18       0.129104  -0.006588  -0.000717   0.099139  -0.146378  -0.001645
     19      -0.157986  -0.014391   0.046490   0.056944  -0.111014  -0.015145
     20       0.038891   0.033528  -0.015684  -0.169936  -0.318018   0.001719
     21       0.007556  -0.109440   0.129442  -0.031234  -0.122973  -0.059279
     22      -0.136440   0.493515  -0.513157  -0.003858  -0.370542  -0.095359
     23      -0.205703  -0.377556   0.526254  -0.420952  -0.212638  -0.126259
     24       0.129312  -0.006027   0.003091   0.099056   0.146327  -0.001582
     25      -0.158702  -0.023174  -0.040262   0.059661   0.111337  -0.015097
     26       0.039353   0.036038   0.004724  -0.170511   0.317772   0.001780
     27       0.005226  -0.133447  -0.104110  -0.024128   0.123967  -0.059333
     28      -0.127111   0.587431   0.397448  -0.032192   0.367262  -0.095754
     29      -0.215864  -0.476824  -0.440954  -0.391628   0.215556  -0.126362
                 12         13         14         15         16         17    
      0      -0.196414   0.336018  -0.042082  -0.020828   0.019207  -0.033863
      1      -0.160974   0.267121   0.064553  -0.117145   0.011575   0.042121
      2      -0.196070   0.151461   0.123151   0.229032  -0.006191   0.034151
      3       0.045727   0.087798   0.309962  -0.389907   0.139275   0.136816
      4      -0.096813   0.212830   0.114956  -0.202232   0.097853   0.075256
      5      -0.136515   0.189566   0.200395   0.081869   0.211142   0.084908
      6      -0.119974   0.303965  -0.233004   0.161226  -0.079408  -0.318368
      7      -0.181370   0.283087  -0.322093   0.255466  -0.077651  -0.345587
      8       0.032219   0.136945  -0.015525   0.376618  -0.291858  -0.366282
      9      -0.358927  -0.229397   0.041697   0.020971   0.019662  -0.033968
     10      -0.289364  -0.181135  -0.064840   0.117002   0.011868   0.042255
     11      -0.257820  -0.064709  -0.123358  -0.229006  -0.007012   0.034057
     12      -0.275045  -0.228842   0.232924  -0.159832  -0.078452  -0.318451
     13      -0.319116  -0.187582   0.322410  -0.254093  -0.077253  -0.346473
     14      -0.047260  -0.136641   0.016989  -0.374899  -0.292366  -0.366807
     15      -0.004388  -0.095782  -0.310278   0.388141   0.139136   0.137027
     16      -0.201559  -0.155437  -0.115679   0.202000   0.098339   0.075588
     17      -0.224043  -0.119191  -0.201150  -0.082637   0.210425   0.084920
     18       0.174525  -0.199596   0.007819  -0.020913  -0.003443   0.024100
     19       0.151097  -0.185205  -0.009643   0.029223   0.013890  -0.026423
     20       0.161559  -0.088020   0.021962  -0.020870   0.032532  -0.018854
     21       0.014023   0.052991  -0.141144  -0.014771  -0.236398   0.202428
     22       0.070568   0.211386  -0.293480  -0.023043  -0.380112   0.187648
     23       0.131725   0.162924  -0.251418  -0.005436  -0.356582   0.174650
     24       0.264842   0.115297  -0.007551   0.020759  -0.003574   0.024173
     25       0.236297   0.111296   0.009794  -0.029301   0.013790  -0.026538
     26       0.192866   0.020429  -0.021924   0.020679   0.032537  -0.018943
     27      -0.016715  -0.052607   0.141875   0.015885  -0.235944   0.202609
     28      -0.054359  -0.215778   0.294892   0.024836  -0.379873   0.188790
     29       0.026843  -0.194510   0.252551   0.007210  -0.356210   0.175788
                 18         19         20         21         22         23    
      0       0.018796  -0.030288  -0.118485   0.004498   0.035963  -0.041430
      1       0.033186   0.007172   0.056347   0.067347   0.021949  -0.028613
      2      -0.047180  -0.068800  -0.013575   0.062137  -0.047636   0.043554
      3       0.014016   0.320131   0.216816  -0.184768  -0.446814   0.441427
      4      -0.048575   0.229673   0.064653  -0.159392   0.028719  -0.034792
      5      -0.307945   0.497727  -0.083794  -0.567434   0.211968  -0.217893
      6       0.180204   0.093127   0.029590  -0.166754  -0.060786   0.061649
      7       0.147623   0.088696  -0.039911  -0.207638  -0.417209   0.430569
      8       0.290834   0.224973   0.561336  -0.130632   0.259995  -0.251537
      9      -0.019342  -0.029900   0.118512  -0.004429  -0.036213  -0.041181
     10      -0.033080   0.007741  -0.056243  -0.067311  -0.022132  -0.028572
     11       0.045711  -0.069790   0.013626  -0.062086   0.047865   0.043210
     12      -0.177551   0.096520  -0.029547   0.166148   0.061086   0.061223
     13      -0.145679   0.091675   0.039111   0.206995   0.419772   0.428171
     14      -0.285733   0.231028  -0.561685   0.130632  -0.261698  -0.250365
     15      -0.007840   0.320236  -0.217107   0.184103   0.449550   0.438864
     16       0.053303   0.229290  -0.064758   0.159725  -0.028650  -0.034328
     17       0.317886   0.491861   0.083913   0.567048  -0.212841  -0.215927
     18      -0.025611  -0.003952   0.004742   0.018239   0.001389  -0.000805
     19       0.024076  -0.033358  -0.030167   0.010930   0.006931  -0.005539
     20       0.029832  -0.000192  -0.026226  -0.004392   0.005004  -0.005405
     21      -0.213972   0.012558   0.109435   0.085273  -0.013715   0.003396
     22      -0.321012   0.120293   0.216991   0.072756  -0.040082   0.033535
     23      -0.327737   0.104425   0.214817   0.097986  -0.018906   0.036472
     24       0.025505  -0.004472  -0.004756  -0.018238  -0.001392  -0.000807
     25      -0.024676  -0.032848   0.030121  -0.010932  -0.006963  -0.005487
     26      -0.029741   0.000439   0.026162   0.004373  -0.005025  -0.005358
     27       0.213347   0.008312  -0.109277  -0.084847   0.013707   0.003384
     28       0.322601   0.113494  -0.216604  -0.072839   0.040150   0.033245
     29       0.328752   0.097460  -0.214166  -0.097913   0.019090   0.036232
                 24         25         26         27         28         29    
      0      -0.002436   0.002404   0.041417  -0.023565  -0.031008  -0.048076
      1      -0.008068   0.003283   0.005254  -0.032867   0.055659   0.048948
      2      -0.012795   0.005486  -0.024118   0.023549  -0.008397   0.002449
      3       0.019090  -0.013414   0.053189  -0.079360   0.061825   0.034537
      4      -0.026002   0.012512  -0.316531   0.547775  -0.585343  -0.389885
      5       0.028487  -0.011742   0.088973  -0.167875   0.184341   0.126784
      6      -0.047494   0.055342  -0.557386   0.358005   0.297443   0.507232
      7       0.068060  -0.022066   0.232453  -0.147895  -0.103721  -0.186270
      8       0.049827  -0.028710   0.168613  -0.098370  -0.099545  -0.157137
      9      -0.002276  -0.002306  -0.040730  -0.025998   0.029077  -0.048667
     10      -0.008011  -0.003340  -0.004740  -0.030120  -0.056641   0.049672
     11      -0.012660  -0.005648   0.023560   0.023608   0.009736   0.002337
     12      -0.047192  -0.057285   0.547683   0.384804  -0.270836   0.513200
     13       0.067843   0.023180  -0.228182  -0.157794   0.092907  -0.188186
     14       0.049316   0.029527  -0.165363  -0.106611   0.091704  -0.158596
     15       0.018774   0.013648  -0.051725  -0.077555  -0.065910   0.035528
     16      -0.025835  -0.013492   0.305867   0.523915   0.608403  -0.396911
     17       0.028231   0.012204  -0.085963  -0.160500  -0.191702   0.129288
     18      -0.036190   0.037001   0.003939  -0.004206   0.000219  -0.001078
     19       0.010166  -0.007784   0.001482  -0.000316   0.000154  -0.000775
     20       0.022859  -0.017616   0.000615   0.000441   0.000242   0.000795
     21       0.631683  -0.644766  -0.061405   0.068514   0.017038   0.048061
     22      -0.107243   0.092459   0.006406  -0.002477   0.000027   0.005383
     23      -0.288688   0.248747   0.021034  -0.020916  -0.005807  -0.011251
     24      -0.035690  -0.037541  -0.003854  -0.004334  -0.000451  -0.001117
     25       0.010031   0.007897  -0.001468  -0.000329  -0.000186  -0.000772
     26       0.022579   0.017903  -0.000615   0.000468  -0.000212   0.000811
     27       0.622178   0.653883   0.060107   0.071722  -0.012862   0.049050
     28      -0.105798  -0.093707  -0.006370  -0.002758  -0.000075   0.005301
     29      -0.285046  -0.252638  -0.020637  -0.022059   0.004572  -0.011620


-----------
IR SPECTRUM
-----------

 Mode   freq       eps      Int      T**2         TX        TY        TZ
       cm**-1   L/(mol*cm) km/mol    a.u.
----------------------------------------------------------------------------
  6:    215.51   0.007372   37.26  0.010675  ( 0.065077  0.078187  0.018086)
  7:    259.83   0.022735  114.89  0.027305  ( 0.157584 -0.004259  0.049540)
  8:    277.09   0.000228    1.15  0.000257  (-0.015565  0.000263 -0.003837)
  9:    293.89   0.009380   47.40  0.009960  ( 0.053772  0.002563  0.084037)
 10:    408.71   0.000000    0.00  0.000000  (-0.000355 -0.000027 -0.000158)
 11:    819.66   0.018023   91.08  0.006862  (-0.081342  0.015537  0.002003)
 12:    864.21   0.055371  279.82  0.019994  ( 0.140372  0.001858  0.016928)
 13:    865.16   0.003077   15.55  0.001110  (-0.033058 -0.000510 -0.004086)
 14:    978.09   0.000000    0.00  0.000000  ( 0.000050 -0.000061 -0.000059)
 15:   1045.43   0.000000    0.00  0.000000  (-0.000152 -0.000040 -0.000087)
 16:   1091.67   0.016856   85.18  0.004818  (-0.007373  0.037057  0.058230)
 17:   1163.90   0.066827  337.72  0.017918  (-0.008883 -0.063199 -0.117663)
 18:   1259.86   0.000002    0.01  0.000001  ( 0.000447  0.000299  0.000518)
 19:   1267.18   0.018412   93.05  0.004534  ( 0.054513  0.015173  0.036502)
 20:   1301.69   0.000000    0.00  0.000000  ( 0.000222  0.000013  0.000012)
 21:   1325.24   0.000000    0.00  0.000000  (-0.000143 -0.000100 -0.000137)
 22:   1507.62   0.000000    0.00  0.000000  ( 0.000066 -0.000045  0.000020)
 23:   1533.62   0.001332    6.73  0.000271  ( 0.012020 -0.001960  0.011080)
 24:   2213.76   3.928050  19850.75  0.553719  (-0.650152 -0.169949 -0.319591)
 25:   2665.60   0.000197    0.99  0.000023  (-0.004211 -0.001066 -0.002037)
 26:   2930.23   0.000005    0.02  0.000001  ( 0.000453  0.000307 -0.000464)
 27:   2952.27   0.049118  248.22  0.005192  (-0.048574 -0.041243  0.033639)
 28:   2957.48   0.000040    0.20  0.000004  (-0.001719 -0.000659  0.000909)
 29:   3006.77   0.077214  390.21  0.008014  (-0.071050  0.054455 -0.000662)

* The epsilon (eps) is given for a Dirac delta lineshape.
** The dipole moment derivative (T) already includes vibrational overlap.

The first frequency considered to be a vibration is 6
The total number of vibrations considered is 24


--------------------------
THERMOCHEMISTRY AT 298.15K
--------------------------

Temperature         ... 298.15 K
Pressure            ... 1.00 atm
Total Mass          ... 62.07 AMU

Throughout the following assumptions are being made:
  (1) The electronic state is orbitally nondegenerate
      but the spin degeneracy is treated
  (2) There are no thermally accessible electronically excited states
  (3) Hindered rotations indicated by low frequency modes are not
      treated as such but are treated as vibrations and this may
      cause some error
  (4) All equations used are the standard statistical mechanics
      equations for an ideal gas
  (5) All vibrations are strictly harmonic

freq.     215.51  E(vib)   ...       0.34 
freq.     259.83  E(vib)   ...       0.30 
freq.     277.09  E(vib)   ...       0.28 
freq.     293.89  E(vib)   ...       0.27 
freq.     408.71  E(vib)   ...       0.19 
freq.     819.66  E(vib)   ...       0.05 
freq.     864.21  E(vib)   ...       0.04 
freq.     865.16  E(vib)   ...       0.04 
freq.     978.09  E(vib)   ...       0.03 
freq.    1045.43  E(vib)   ...       0.02 
freq.    1091.67  E(vib)   ...       0.02 
freq.    1163.90  E(vib)   ...       0.01 
freq.    1259.86  E(vib)   ...       0.01 
freq.    1267.18  E(vib)   ...       0.01 
freq.    1301.69  E(vib)   ...       0.01 
freq.    1325.24  E(vib)   ...       0.01 
freq.    1507.62  E(vib)   ...       0.00 
freq.    1533.62  E(vib)   ...       0.00 
freq.    2213.76  E(vib)   ...       0.00 
freq.    2665.60  E(vib)   ...       0.00 
freq.    2930.23  E(vib)   ...       0.00 
freq.    2952.27  E(vib)   ...       0.00 
freq.    2957.48  E(vib)   ...       0.00 
freq.    3006.77  E(vib)   ...       0.00 

------------
INNER ENERGY
------------

The inner energy is: U= E(el) + E(ZPE) + E(vib) + E(rot) + E(trans)
    E(el)   - is the total energy from the electronic structure calculation
              = E(kin-el) + E(nuc-el) + E(el-el) + E(nuc-nuc)
    E(ZPE)  - the the zero temperature vibrational energy from the frequency calculation
    E(vib)  - the the finite temperature correction to E(ZPE) due to population
              of excited vibrational states
    E(rot)  - is the rotational thermal energy
    E(trans)- is the translational thermal energy

Summary of contributions to the inner energy U:
Electronic energy                ...   -230.04277672 Eh
Zero point energy                ...      0.07564533 Eh      47.47 kcal/mol
Thermal vibrational correction   ...      0.00255705 Eh       1.60 kcal/mol
Thermal rotational correction    ...      0.00141627 Eh       0.89 kcal/mol
Thermal translational correction ...      0.00141627 Eh       0.89 kcal/mol
-----------------------------------------------------------------------
Total thermal energy                   -229.96174180 Eh


Summary of corrections to the electronic energy:
(perhaps to be used in another calculation)
Total thermal correction                  0.00538959 Eh       3.38 kcal/mol
Non-thermal (ZPE) correction              0.07564533 Eh      47.47 kcal/mol
-----------------------------------------------------------------------
Total correction                          0.08103493 Eh      50.85 kcal/mol


--------
ENTHALPY
--------

The enthalpy is H = U + kB*T
                kB is Boltzmann's constant
Total free energy                 ...   -229.96174180 Eh 
Thermal Enthalpy correction       ...      0.00094421 Eh       0.59 kcal/mol
-----------------------------------------------------------------------
Total Enthalpy                    ...   -229.96079759 Eh


Note: Only C1 symmetry has been detected, increase convergence thresholds 
      if your molecule has a higher symmetry. Symmetry factor of 1.0 is   
      used for the rotational entropy correction. 
 

Note: Rotational entropy computed according to Herzberg 
Infrared and Raman Spectra, Chapter V,1, Van Nostrand Reinhold, 1945 
Point Group:  C1, Symmetry Number:   1  
Rotational constants in cm-1:     0.947029     0.125530     0.117002 

Vibrational entropy computed according to the QRRHO of S. Grimme
Chem.Eur.J. 2012 18 9955


-------
ENTROPY
-------

The entropy contributions are T*S = T*(S(el)+S(vib)+S(rot)+S(trans))
     S(el)   - electronic entropy
     S(vib)  - vibrational entropy
     S(rot)  - rotational entropy
     S(trans)- translational entropy
The entropies will be listed as multiplied by the temperature to get
units of energy

Electronic entropy                ...      0.00065446 Eh      0.41 kcal/mol
Vibrational entropy               ...      0.00406629 Eh      2.55 kcal/mol
Rotational entropy                ...      0.01152909 Eh      7.23 kcal/mol
Translational entropy             ...      0.01819577 Eh     11.42 kcal/mol
-----------------------------------------------------------------------
Final entropy term                ...      0.03444561 Eh     21.61 kcal/mol

In case the symmetry of your molecule has not been determined correctly
or in case you have a reason to use a different symmetry number we print 
out the resulting rotational entropy values for sn=1,12 :
 --------------------------------------------------------
|  sn= 1 | S(rot)=       0.01152909 Eh      7.23 kcal/mol|
|  sn= 2 | S(rot)=       0.01087464 Eh      6.82 kcal/mol|
|  sn= 3 | S(rot)=       0.01049180 Eh      6.58 kcal/mol|
|  sn= 4 | S(rot)=       0.01022018 Eh      6.41 kcal/mol|
|  sn= 5 | S(rot)=       0.01000949 Eh      6.28 kcal/mol|
|  sn= 6 | S(rot)=       0.00983735 Eh      6.17 kcal/mol|
|  sn= 7 | S(rot)=       0.00969180 Eh      6.08 kcal/mol|
|  sn= 8 | S(rot)=       0.00956572 Eh      6.00 kcal/mol|
|  sn= 9 | S(rot)=       0.00945452 Eh      5.93 kcal/mol|
|  sn=10 | S(rot)=       0.00935504 Eh      5.87 kcal/mol|
|  sn=11 | S(rot)=       0.00926505 Eh      5.81 kcal/mol|
|  sn=12 | S(rot)=       0.00918289 Eh      5.76 kcal/mol|
 --------------------------------------------------------


-------------------
GIBBS FREE ENERGY
-------------------

The Gibbs free energy is G = H - T*S

Total enthalpy                    ...   -229.96079759 Eh 
Total entropy correction          ...     -0.03444561 Eh    -21.61 kcal/mol
-----------------------------------------------------------------------
Final Gibbs free energy         ...   -229.99524320 Eh

For completeness - the Gibbs free energy minus the electronic energy
G-E(el)                           ...      0.04753353 Eh     29.83 kcal/mol


Timings for individual modules:

Sum of individual times         ...      575.954 sec (=   9.599 min)
GTO integral calculation        ...        2.229 sec (=   0.037 min)   0.4 %
SCF iterations                  ...      367.707 sec (=   6.128 min)  63.8 %
SCF Gradient evaluation         ...      111.231 sec (=   1.854 min)  19.3 %
Geometry relaxation             ...        0.994 sec (=   0.017 min)   0.2 %
Analytical frequency calculation...       93.794 sec (=   1.563 min)  16.3 %
                             ****ORCA TERMINATED NORMALLY****
TOTAL RUN TIME: 0 days 0 hours 9 minutes 37 seconds 739 msec
