
                                 *****************
                                 * O   R   C   A *
                                 *****************

                                            #,                                       
                                            ###                                      
                                            ####                                     
                                            #####                                    
                                            ######                                   
                                           ########,                                 
                                     ,,################,,,,,                         
                               ,,#################################,,                 
                          ,,##########################################,,             
                       ,#########################################, ''#####,          
                    ,#############################################,,   '####,        
                  ,##################################################,,,,####,       
                ,###########''''           ''''###############################       
              ,#####''   ,,,,##########,,,,          '''####'''          '####       
            ,##' ,,,,###########################,,,                        '##       
           ' ,,###''''                  '''############,,,                           
         ,,##''                                '''############,,,,        ,,,,,,###''
      ,#''                                            '''#######################'''  
     '                                                          ''''####''''         
             ,#######,   #######,   ,#######,      ##                                
            ,#'     '#,  ##    ##  ,#'     '#,    #''#        ######   ,####,        
            ##       ##  ##   ,#'  ##            #'  '#       #        #'  '#        
            ##       ##  #######   ##           ,######,      #####,   #    #        
            '#,     ,#'  ##    ##  '#,     ,#' ,#      #,         ##   #,  ,#        
             '#######'   ##     ##  '#######'  #'      '#     #####' # '####'        



                  #######################################################
                  #                        -***-                        #
                  #          Department of theory and spectroscopy      #
                  #    Directorship and core code : Frank Neese         #
                  #        Max Planck Institute fuer Kohlenforschung    #
                  #                Kaiser Wilhelm Platz 1               #
                  #                 D-45470 Muelheim/Ruhr               #
                  #                      Germany                        #
                  #                                                     #
                  #                  All rights reserved                #
                  #                        -***-                        #
                  #######################################################


                         Program Version 5.0.3 -  RELEASE  -


 With contributions from (in alphabetic order):
   Daniel Aravena         : Magnetic Suceptibility
   Michael Atanasov       : Ab Initio Ligand Field Theory (pilot matlab implementation)
   Alexander A. Auer      : GIAO ZORA, VPT2 properties, NMR spectrum
   Ute Becker             : Parallelization
   Giovanni Bistoni       : ED, misc. LED, open-shell LED, HFLD
   Martin Brehm           : Molecular dynamics
   Dmytro Bykov           : SCF Hessian
   Vijay G. Chilkuri      : MRCI spin determinant printing, contributions to CSF-ICE
   Dipayan Datta          : RHF DLPNO-CCSD density
   Achintya Kumar Dutta   : EOM-CC, STEOM-CC
   Dmitry Ganyushin       : Spin-Orbit,Spin-Spin,Magnetic field MRCI
   Miquel Garcia          : C-PCM and meta-GGA Hessian, CC/C-PCM, Gaussian charge scheme
   Yang Guo               : DLPNO-NEVPT2, F12-NEVPT2, CIM, IAO-localization
   Andreas Hansen         : Spin unrestricted coupled pair/coupled cluster methods
   Benjamin Helmich-Paris : MC-RPA, TRAH-SCF, COSX integrals
   Lee Huntington         : MR-EOM, pCC
   Robert Izsak           : Overlap fitted RIJCOSX, COSX-SCS-MP3, EOM
   Marcus Kettner         : VPT2
   Christian Kollmar      : KDIIS, OOCD, Brueckner-CCSD(T), CCSD density, CASPT2, CASPT2-K
   Simone Kossmann        : Meta GGA functionals, TD-DFT gradient, OOMP2, MP2 Hessian
   Martin Krupicka        : Initial AUTO-CI
   Lucas Lang             : DCDCAS
   Marvin Lechner         : AUTO-CI (C++ implementation), FIC-MRCC
   Dagmar Lenk            : GEPOL surface, SMD
   Dimitrios Liakos       : Extrapolation schemes; Compound Job, initial MDCI parallelization
   Dimitrios Manganas     : Further ROCIS development; embedding schemes
   Dimitrios Pantazis     : SARC Basis sets
   Anastasios Papadopoulos: AUTO-CI, single reference methods and gradients
   Taras Petrenko         : DFT Hessian,TD-DFT gradient, ASA, ECA, R-Raman, ABS, FL, XAS/XES, NRVS
   Peter Pinski           : DLPNO-MP2, DLPNO-MP2 Gradient
   Christoph Reimann      : Effective Core Potentials
   Marius Retegan         : Local ZFS, SOC
   Christoph Riplinger    : Optimizer, TS searches, QM/MM, DLPNO-CCSD(T), (RO)-DLPNO pert. Triples
   Tobias Risthaus        : Range-separated hybrids, TD-DFT gradient, RPA, STAB
   Michael Roemelt        : Original ROCIS implementation
   Masaaki Saitow         : Open-shell DLPNO-CCSD energy and density
   Barbara Sandhoefer     : DKH picture change effects
   Avijit Sen             : IP-ROCIS
   Kantharuban Sivalingam : CASSCF convergence, NEVPT2, FIC-MRCI
   Bernardo de Souza      : ESD, SOC TD-DFT
   Georgi Stoychev        : AutoAux, RI-MP2 NMR, DLPNO-MP2 response
   Willem Van den Heuvel  : Paramagnetic NMR
   Boris Wezisla          : Elementary symmetry handling
   Frank Wennmohs         : Technical directorship


 We gratefully acknowledge several colleagues who have allowed us to
 interface, adapt or use parts of their codes:
   Stefan Grimme, W. Hujo, H. Kruse, P. Pracht,  : VdW corrections, initial TS optimization,
                  C. Bannwarth, S. Ehlert          DFT functionals, gCP, sTDA/sTD-DF
   Ed Valeev, F. Pavosevic, A. Kumar             : LibInt (2-el integral package), F12 methods
   Garnet Chan, S. Sharma, J. Yang, R. Olivares  : DMRG
   Ulf Ekstrom                                   : XCFun DFT Library
   Mihaly Kallay                                 : mrcc  (arbitrary order and MRCC methods)
   Jiri Pittner, Ondrej Demel                    : Mk-CCSD
   Frank Weinhold                                : gennbo (NPA and NBO analysis)
   Christopher J. Cramer and Donald G. Truhlar   : smd solvation model
   Lars Goerigk                                  : TD-DFT with DH, B97 family of functionals
   V. Asgeirsson, H. Jonsson                     : NEB implementation
   FAccTs GmbH                                   : IRC, NEB, NEB-TS, DLPNO-Multilevel, CI-OPT
                                                   MM, QMMM, 2- and 3-layer-ONIOM, Crystal-QMMM,
                                                   LR-CPCM, SF, NACMEs, symmetry and pop. for TD-DFT,
                                                   nearIR, NL-DFT gradient (VV10), updates on ESD,
                                                   ML-optimized integration grids
   S Lehtola, MJT Oliveira, MAL Marques          : LibXC Library
   Liviu Ungur et al                             : ANISO software


 Your calculation uses the libint2 library for the computation of 2-el integrals
 For citations please refer to: http://libint.valeyev.net

 Your ORCA version has been built with support for libXC version: 5.1.0
 For citations please refer to: https://tddft.org/programs/libxc/

 This ORCA versions uses:
   CBLAS   interface :  Fast vector & matrix operations
   LAPACKE interface :  Fast linear algebra routines
   SCALAPACK package :  Parallel linear algebra routines
   Shared memory     :  Shared parallel matrices
   BLAS/LAPACK       :  OpenBLAS 0.3.19 NO_AFFINITY VORTEX SINGLE_THREADED
        Core in use  :  VORTEX
   Copyright (c) 2011-2014, The OpenBLAS Project


Your calculation utilizes the atom-pairwise dispersion correction
with the Becke-Johnson damping scheme (D3BJ)
Cite in your paper:
S.Grimme, S.Ehrlich, L.Goerigk, J Comput Chem, (2011), 32, 1456–1465 
S.Grimme, J.Antony, S.Ehrlich and H.Krieg, J.Chem.Phys., 132, (2010), 154104 
   

================================================================================

----- Orbital basis set information -----
Your calculation utilizes the basis: 6-311G
   H, Li - Ne  : R. Krishnan, J. S. Binkley, R. Seeger and J. A. Pople, J. Chem. Phys. 72, 650 (1980).
   Na - Ar     : A. D. McLean and G. S. Chandler J. Chem. Phys. 72, 5639, (1980).
   K  - Ca     : J.-P. Blaudeau, M. P. McGrath, L. A. Curtiss and L. Radom, J. Chem. Phys. 107, 5016 (1997).
   Ga - Kr     : L. A. Curtiss, M. P. McGrath, J.-P. Blandeau, N. E. Davis, R. C. Binning and L. Radom, J. Chem. Phys. 103, 6104 (1995).

----- AuxJ basis set information -----
Your calculation utilizes the AutoAux generation procedure.
  G. L. Stoychev, A. A. Auer, F. Neese, J. Chem. Theory Comput. 13, 554 (2017)

----- AuxC basis set information -----
Your calculation utilizes the AutoAux generation procedure.
  G. L. Stoychev, A. A. Auer, F. Neese, J. Chem. Theory Comput. 13, 554 (2017)

----- AuxJK basis set information -----
Your calculation utilizes the AutoAux generation procedure.
  G. L. Stoychev, A. A. Auer, F. Neese, J. Chem. Theory Comput. 13, 554 (2017)

================================================================================
                                        WARNINGS
                       Please study these warnings very carefully!
================================================================================


WARNING: your system is open-shell and RHF/RKS was chosen
  ===> : WILL SWITCH to UHF/UKS


WARNING: Geometry Optimization
  ===> : Switching off AutoStart
         For restart on a previous wavefunction, please use MOREAD

INFO   : the flag for use of the SHARK integral package has been found!

================================================================================
                                       INPUT FILE
================================================================================
NAME = eg_p.inp
|  1> !B3LYP D3BJ 6-311G
|  2> !RIJCOSX AutoAux printbasis
|  3> !Opt Freq
|  4> !DEFGRID3 TightSCF
|  5> *xyz 1 2
|  6> C       -1.815527635      0.000000000     -1.701852812
|  7> H       -1.815527635      1.019690000     -2.101108812
|  8> H       -0.932449635     -0.509845000     -2.101108811
|  9> C       -1.815527635      0.000000000     -0.171864812
| 10> H       -2.698605635      0.509845000      0.227391188
| 11> H       -1.815527635     -1.019690000      0.227391188
| 12> O       -2.976763524     -0.670439431     -2.226869171
| 13> H       -3.617938706     -0.008421754     -2.516756404
| 14> O       -0.654291745      0.670439431      0.353151548
| 15> H       -0.788200812      1.625327153      0.292608766
| 16> **                         ****END OF INPUT****
================================================================================

                       *****************************
                       * Geometry Optimization Run *
                       *****************************

Geometry optimization settings:
Update method            Update   .... BFGS
Choice of coordinates    CoordSys .... Z-matrix Internals
Initial Hessian          InHess   .... Almoef's Model

Convergence Tolerances:
Energy Change            TolE     ....  5.0000e-06 Eh
Max. Gradient            TolMAXG  ....  3.0000e-04 Eh/bohr
RMS Gradient             TolRMSG  ....  1.0000e-04 Eh/bohr
Max. Displacement        TolMAXD  ....  4.0000e-03 bohr
RMS Displacement         TolRMSD  ....  2.0000e-03 bohr
Strict Convergence                ....  False
------------------------------------------------------------------------------
                        ORCA OPTIMIZATION COORDINATE SETUP
------------------------------------------------------------------------------

The optimization will be done in new redundant internal coordinates
Making redundant internal coordinates   ...  (new redundants) done
Evaluating the initial hessian          ...  (Almloef) done
Evaluating the coordinates              ...  done
Calculating the B-matrix                .... done
Calculating the G-matrix                .... done
Diagonalizing the G-matrix              .... done
The first mode is                       ....   14
The number of degrees of freedom        ....   24

    -----------------------------------------------------------------
                    Redundant Internal Coordinates


    -----------------------------------------------------------------
         Definition                    Initial Value    Approx d2E/dq
    -----------------------------------------------------------------
      1. B(H   1,C   0)                  1.0951         0.353458   
      2. B(H   2,C   0)                  1.0951         0.353458   
      3. B(C   3,C   0)                  1.5300         0.373591   
      4. B(H   4,C   3)                  1.0951         0.353458   
      5. B(H   5,C   3)                  1.0951         0.353458   
      6. B(O   6,C   0)                  1.4400         0.465697   
      7. B(H   7,O   6)                  0.9661         0.508378   
      8. B(O   8,C   3)                  1.4400         0.465697   
      9. B(H   9,O   8)                  0.9661         0.508378   
     10. A(H   1,C   0,C   3)          111.3827         0.323332   
     11. A(H   2,C   0,O   6)          107.4940         0.333289   
     12. A(H   1,C   0,O   6)          107.4940         0.333289   
     13. A(H   1,C   0,H   2)          107.4940         0.289146   
     14. A(C   3,C   0,O   6)          111.3826         0.375016   
     15. A(H   2,C   0,C   3)          111.3826         0.323332   
     16. A(H   4,C   3,O   8)          107.4940         0.333289   
     17. A(H   4,C   3,H   5)          107.4940         0.289146   
     18. A(C   0,C   3,O   8)          111.3826         0.375016   
     19. A(C   0,C   3,H   5)          111.3827         0.323332   
     20. A(C   0,C   3,H   4)          111.3826         0.323332   
     21. A(H   5,C   3,O   8)          107.4940         0.333289   
     22. A(C   0,O   6,H   7)          108.9987         0.351145   
     23. A(C   3,O   8,H   9)          108.9987         0.351145   
     24. D(H   4,C   3,C   0,O   6)    -60.0000         0.011145   
     25. D(H   4,C   3,C   0,H   2)    180.0000         0.011145   
     26. D(H   5,C   3,C   0,H   1)    180.0000         0.011145   
     27. D(H   5,C   3,C   0,O   6)     60.0000         0.011145   
     28. D(O   8,C   3,C   0,H   1)    -60.0000         0.011145   
     29. D(H   4,C   3,C   0,H   1)     60.0000         0.011145   
     30. D(O   8,C   3,C   0,H   2)     60.0000         0.011145   
     31. D(O   8,C   3,C   0,O   6)    180.0000         0.011145   
     32. D(H   5,C   3,C   0,H   2)    -60.0000         0.011145   
     33. D(H   7,O   6,C   0,C   3)    101.8871         0.017090   
     34. D(H   7,O   6,C   0,H   2)   -135.8406         0.017090   
     35. D(H   7,O   6,C   0,H   1)    -20.3851         0.017090   
     36. D(H   9,O   8,C   3,H   5)   -159.6149         0.017090   
     37. D(H   9,O   8,C   3,H   4)    -44.1594         0.017090   
     38. D(H   9,O   8,C   3,C   0)     78.1129         0.017090   
    -----------------------------------------------------------------

Number of atoms                         .... 10
Number of degrees of freedom            .... 38

         *************************************************************
         *                GEOMETRY OPTIMIZATION CYCLE   1            *
         *************************************************************
---------------------------------
CARTESIAN COORDINATES (ANGSTROEM)
---------------------------------
  C     -1.815528    0.000000   -1.701853
  H     -1.815528    1.019690   -2.101109
  H     -0.932450   -0.509845   -2.101109
  C     -1.815528    0.000000   -0.171865
  H     -2.698606    0.509845    0.227391
  H     -1.815528   -1.019690    0.227391
  O     -2.976764   -0.670439   -2.226869
  H     -3.617939   -0.008422   -2.516756
  O     -0.654292    0.670439    0.353152
  H     -0.788201    1.625327    0.292609

----------------------------
CARTESIAN COORDINATES (A.U.)
----------------------------
  NO LB      ZA    FRAG     MASS         X           Y           Z
   0 C     6.0000    0    12.011   -3.430850    0.000000   -3.216036
   1 H     1.0000    0     1.008   -3.430850    1.926935   -3.970520
   2 H     1.0000    0     1.008   -1.762074   -0.963467   -3.970520
   3 C     6.0000    0    12.011   -3.430850    0.000000   -0.324777
   4 H     1.0000    0     1.008   -5.099626    0.963467    0.429707
   5 H     1.0000    0     1.008   -3.430850   -1.926935    0.429707
   6 O     8.0000    0    15.999   -5.625268   -1.266947   -4.208173
   7 H     1.0000    0     1.008   -6.836913   -0.015915   -4.755980
   8 O     8.0000    0    15.999   -1.236432    1.266947    0.667360
   9 H     1.0000    0     1.008   -1.489484    3.071423    0.552950

--------------------------------
INTERNAL COORDINATES (ANGSTROEM)
--------------------------------
 C      0   0   0     0.000000000000     0.00000000     0.00000000
 H      1   0   0     1.095067600487     0.00000000     0.00000000
 H      1   2   0     1.095068048500   107.49399117     0.00000000
 C      1   2   3     1.529988000000   111.38265079   122.27226296
 H      4   1   2     1.095068048865   111.38264160    60.00001562
 H      4   1   2     1.095067600487   111.38265079   180.00000000
 O      1   2   3     1.439999999222   107.49399114   244.54452597
 H      7   1   2     0.966130232696   108.99865134   339.61487484
 O      4   1   2     1.440000000393   111.38264163   299.99998436
 H      9   4   1     0.966130233614   108.99865122    78.11285639

---------------------------
INTERNAL COORDINATES (A.U.)
---------------------------
 C      0   0   0     0.000000000000     0.00000000     0.00000000
 H      1   0   0     2.069377863050     0.00000000     0.00000000
 H      1   2   0     2.069378709673   107.49399117     0.00000000
 C      1   2   3     2.891258308186   111.38265079   122.27226296
 H      4   1   2     2.069378710362   111.38264160    60.00001562
 H      4   1   2     2.069377863050   111.38265079   180.00000000
 O      1   2   3     2.721205631376   107.49399114   244.54452597
 H      7   1   2     1.825721549497   108.99865134   339.61487484
 O      4   1   2     2.721205633589   111.38264163   299.99998436
 H      9   4   1     1.825721551232   108.99865122    78.11285639

---------------------
BASIS SET INFORMATION
---------------------
There are 3 groups of distinct atoms

 Group   1 Type C   : 11s5p contracted to 4s3p pattern {6311/311}
 Group   2 Type H   : 5s contracted to 3s pattern {311}
 Group   3 Type O   : 11s5p contracted to 4s3p pattern {6311/311}

Atom   0C    basis set group =>   1
Atom   1H    basis set group =>   2
Atom   2H    basis set group =>   2
Atom   3C    basis set group =>   1
Atom   4H    basis set group =>   2
Atom   5H    basis set group =>   2
Atom   6O    basis set group =>   3
Atom   7H    basis set group =>   2
Atom   8O    basis set group =>   3
Atom   9H    basis set group =>   2

-------------------------
BASIS SET IN INPUT FORMAT
-------------------------

 # Basis set for element : H 
 NewGTO H 
 S 3 
   1      33.8650000000      0.0254938145
   2       5.0947900000      0.1903731086
   3       1.1587900000      0.8521614860
 S 1 
   1       0.3258400000      1.0000000000
 S 1 
   1       0.1027410000      1.0000000000
  end;

 # Basis set for element : C 
 NewGTO C 
 S 6 
   1    4563.2400000000      0.0019666502
   2     682.0240000000      0.0152306019
   3     154.9730000000      0.0761269097
   4      44.4553000000      0.2608010331
   5      13.0290000000      0.6164620782
   6       1.8277300000      0.2210060280
 S 3 
   1      20.9642000000      0.1146600807
   2       4.8033100000      0.9199996477
   3       1.4593300000     -0.0030306821
 P 3 
   1      20.9642000000      0.0402486927
   2       4.8033100000      0.2375939567
   3       1.4593300000      0.8158538515
 S 1 
   1       0.4834560000      1.0000000000
 P 1 
   1       0.4834560000      1.0000000000
 S 1 
   1       0.1455850000      1.0000000000
 P 1 
   1       0.1455850000      1.0000000000
  end;

 # Basis set for element : O 
 NewGTO O 
 S 6 
   1    8588.5000000000      0.0018951501
   2    1297.2300000000      0.0143859006
   3     299.2960000000      0.0707320031
   4      87.3771000000      0.2400010105
   5      25.6789000000      0.5947970261
   6       3.7400400000      0.2808020123
 S 3 
   1      42.1175000000      0.1138890124
   2       9.6283700000      0.9208111006
   3       2.8533200000     -0.0032744704
 P 3 
   1      42.1175000000      0.0365113974
   2       9.6283700000      0.2371529830
   3       2.8533200000      0.8197019412
 S 1 
   1       0.9056610000      1.0000000000
 P 1 
   1       0.9056610000      1.0000000000
 S 1 
   1       0.2556110000      1.0000000000
 P 1 
   1       0.2556110000      1.0000000000
  end;

---------------------------------
AUXILIARY/J BASIS SET INFORMATION
---------------------------------
There are 3 groups of distinct atoms

 Group   1 Type C   : 14s12p8d contracted to 14s12p8d pattern {11111111111111/111111111111/11111111}
 Group   2 Type H   : 11s2p contracted to 11s2p pattern {11111111111/11}
 Group   3 Type O   : 14s12p8d contracted to 14s12p8d pattern {11111111111111/111111111111/11111111}

Atom   0C    basis set group =>   1
Atom   1H    basis set group =>   2
Atom   2H    basis set group =>   2
Atom   3C    basis set group =>   1
Atom   4H    basis set group =>   2
Atom   5H    basis set group =>   2
Atom   6O    basis set group =>   3
Atom   7H    basis set group =>   2
Atom   8O    basis set group =>   3
Atom   9H    basis set group =>   2

-------------------------------------
AUXILIARY/J BASIS SET IN INPUT FORMAT
-------------------------------------

 # Auxiliary/J basis set for element : H 
 NewAuxJGTO H 
 S 1 
   1      73.3666746661      1.0000000000
 S 1 
   1      40.7592637034      1.0000000000
 S 1 
   1      22.6440353908      1.0000000000
 S 1 
   1      12.5800196615      1.0000000000
 S 1 
   1       6.9888998120      1.0000000000
 S 1 
   1       3.8827221178      1.0000000000
 S 1 
   1       2.1570678432      1.0000000000
 S 1 
   1       1.1983710240      1.0000000000
 S 1 
   1       0.6657616800      1.0000000000
 S 1 
   1       0.3698676000      1.0000000000
 S 1 
   1       0.2054820000      1.0000000000
 P 1 
   1       2.0300000000      1.0000000000
 P 1 
   1       0.5400000000      1.0000000000
  end;

 # Auxiliary/J basis set for element : C 
 NewAuxJGTO C 
 S 1 
   1     606.3022679937      1.0000000000
 S 1 
   1     336.8345933299      1.0000000000
 S 1 
   1     187.1303296277      1.0000000000
 S 1 
   1     103.9612942376      1.0000000000
 S 1 
   1      57.7562745765      1.0000000000
 S 1 
   1      32.0868192091      1.0000000000
 S 1 
   1      17.8260106717      1.0000000000
 S 1 
   1       9.9033392621      1.0000000000
 S 1 
   1       5.5018551456      1.0000000000
 S 1 
   1       3.0565861920      1.0000000000
 S 1 
   1       1.6981034400      1.0000000000
 S 1 
   1       0.9433908000      1.0000000000
 S 1 
   1       0.5241060000      1.0000000000
 S 1 
   1       0.2911700000      1.0000000000
 P 1 
   1     187.1303296277      1.0000000000
 P 1 
   1     103.9612942376      1.0000000000
 P 1 
   1      57.7562745765      1.0000000000
 P 1 
   1      32.0868192091      1.0000000000
 P 1 
   1      17.8260106717      1.0000000000
 P 1 
   1       9.9033392621      1.0000000000
 P 1 
   1       5.5018551456      1.0000000000
 P 1 
   1       3.0565861920      1.0000000000
 P 1 
   1       1.6981034400      1.0000000000
 P 1 
   1       0.9433908000      1.0000000000
 P 1 
   1       0.5241060000      1.0000000000
 P 1 
   1       0.2911700000      1.0000000000
 D 1 
   1      17.8260106717      1.0000000000
 D 1 
   1       9.9033392621      1.0000000000
 D 1 
   1       5.5018551456      1.0000000000
 D 1 
   1       3.0565861920      1.0000000000
 D 1 
   1       1.6981034400      1.0000000000
 D 1 
   1       0.9433908000      1.0000000000
 D 1 
   1       0.5241060000      1.0000000000
 D 1 
   1       0.2911700000      1.0000000000
  end;

 # Auxiliary/J basis set for element : O 
 NewAuxJGTO O 
 S 1 
   1    1064.5157744558      1.0000000000
 S 1 
   1     591.3976524755      1.0000000000
 S 1 
   1     328.5542513753      1.0000000000
 S 1 
   1     182.5301396529      1.0000000000
 S 1 
   1     101.4056331405      1.0000000000
 S 1 
   1      56.3364628558      1.0000000000
 S 1 
   1      31.2980349199      1.0000000000
 S 1 
   1      17.3877971777      1.0000000000
 S 1 
   1       9.6598873210      1.0000000000
 S 1 
   1       5.3666040672      1.0000000000
 S 1 
   1       2.9814467040      1.0000000000
 S 1 
   1       1.6563592800      1.0000000000
 S 1 
   1       0.9201996000      1.0000000000
 S 1 
   1       0.5112220000      1.0000000000
 P 1 
   1     328.5542513753      1.0000000000
 P 1 
   1     182.5301396529      1.0000000000
 P 1 
   1     101.4056331405      1.0000000000
 P 1 
   1      56.3364628558      1.0000000000
 P 1 
   1      31.2980349199      1.0000000000
 P 1 
   1      17.3877971777      1.0000000000
 P 1 
   1       9.6598873210      1.0000000000
 P 1 
   1       5.3666040672      1.0000000000
 P 1 
   1       2.9814467040      1.0000000000
 P 1 
   1       1.6563592800      1.0000000000
 P 1 
   1       0.9201996000      1.0000000000
 P 1 
   1       0.5112220000      1.0000000000
 D 1 
   1      31.2980349199      1.0000000000
 D 1 
   1      17.3877971777      1.0000000000
 D 1 
   1       9.6598873210      1.0000000000
 D 1 
   1       5.3666040672      1.0000000000
 D 1 
   1       2.9814467040      1.0000000000
 D 1 
   1       1.6563592800      1.0000000000
 D 1 
   1       0.9201996000      1.0000000000
 D 1 
   1       0.5112220000      1.0000000000
  end;

---------------------------------
AUXILIARY/C BASIS SET INFORMATION
---------------------------------
There are 3 groups of distinct atoms

 Group   1 Type C   : 14s12p8d contracted to 14s12p8d pattern {11111111111111/111111111111/11111111}
 Group   2 Type H   : 11s2p contracted to 11s2p pattern {11111111111/11}
 Group   3 Type O   : 14s12p8d contracted to 14s12p8d pattern {11111111111111/111111111111/11111111}

Atom   0C    basis set group =>   1
Atom   1H    basis set group =>   2
Atom   2H    basis set group =>   2
Atom   3C    basis set group =>   1
Atom   4H    basis set group =>   2
Atom   5H    basis set group =>   2
Atom   6O    basis set group =>   3
Atom   7H    basis set group =>   2
Atom   8O    basis set group =>   3
Atom   9H    basis set group =>   2

-------------------------------------
AUXILIARY/C BASIS SET IN INPUT FORMAT
-------------------------------------

 # Auxiliary/C basis set for element : H 
 NewAuxCGTO H 
 S 1 
   1      73.3666746661      1.0000000000
 S 1 
   1      40.7592637034      1.0000000000
 S 1 
   1      22.6440353908      1.0000000000
 S 1 
   1      12.5800196615      1.0000000000
 S 1 
   1       6.9888998120      1.0000000000
 S 1 
   1       3.8827221178      1.0000000000
 S 1 
   1       2.1570678432      1.0000000000
 S 1 
   1       1.1983710240      1.0000000000
 S 1 
   1       0.6657616800      1.0000000000
 S 1 
   1       0.3698676000      1.0000000000
 S 1 
   1       0.2054820000      1.0000000000
 P 1 
   1       2.0300000000      1.0000000000
 P 1 
   1       0.5400000000      1.0000000000
  end;

 # Auxiliary/C basis set for element : C 
 NewAuxCGTO C 
 S 1 
   1     606.3022679937      1.0000000000
 S 1 
   1     336.8345933299      1.0000000000
 S 1 
   1     187.1303296277      1.0000000000
 S 1 
   1     103.9612942376      1.0000000000
 S 1 
   1      57.7562745765      1.0000000000
 S 1 
   1      32.0868192091      1.0000000000
 S 1 
   1      17.8260106717      1.0000000000
 S 1 
   1       9.9033392621      1.0000000000
 S 1 
   1       5.5018551456      1.0000000000
 S 1 
   1       3.0565861920      1.0000000000
 S 1 
   1       1.6981034400      1.0000000000
 S 1 
   1       0.9433908000      1.0000000000
 S 1 
   1       0.5241060000      1.0000000000
 S 1 
   1       0.2911700000      1.0000000000
 P 1 
   1     187.1303296277      1.0000000000
 P 1 
   1     103.9612942376      1.0000000000
 P 1 
   1      57.7562745765      1.0000000000
 P 1 
   1      32.0868192091      1.0000000000
 P 1 
   1      17.8260106717      1.0000000000
 P 1 
   1       9.9033392621      1.0000000000
 P 1 
   1       5.5018551456      1.0000000000
 P 1 
   1       3.0565861920      1.0000000000
 P 1 
   1       1.6981034400      1.0000000000
 P 1 
   1       0.9433908000      1.0000000000
 P 1 
   1       0.5241060000      1.0000000000
 P 1 
   1       0.2911700000      1.0000000000
 D 1 
   1      17.8260106717      1.0000000000
 D 1 
   1       9.9033392621      1.0000000000
 D 1 
   1       5.5018551456      1.0000000000
 D 1 
   1       3.0565861920      1.0000000000
 D 1 
   1       1.6981034400      1.0000000000
 D 1 
   1       0.9433908000      1.0000000000
 D 1 
   1       0.5241060000      1.0000000000
 D 1 
   1       0.2911700000      1.0000000000
  end;

 # Auxiliary/C basis set for element : O 
 NewAuxCGTO O 
 S 1 
   1    1064.5157744558      1.0000000000
 S 1 
   1     591.3976524755      1.0000000000
 S 1 
   1     328.5542513753      1.0000000000
 S 1 
   1     182.5301396529      1.0000000000
 S 1 
   1     101.4056331405      1.0000000000
 S 1 
   1      56.3364628558      1.0000000000
 S 1 
   1      31.2980349199      1.0000000000
 S 1 
   1      17.3877971777      1.0000000000
 S 1 
   1       9.6598873210      1.0000000000
 S 1 
   1       5.3666040672      1.0000000000
 S 1 
   1       2.9814467040      1.0000000000
 S 1 
   1       1.6563592800      1.0000000000
 S 1 
   1       0.9201996000      1.0000000000
 S 1 
   1       0.5112220000      1.0000000000
 P 1 
   1     328.5542513753      1.0000000000
 P 1 
   1     182.5301396529      1.0000000000
 P 1 
   1     101.4056331405      1.0000000000
 P 1 
   1      56.3364628558      1.0000000000
 P 1 
   1      31.2980349199      1.0000000000
 P 1 
   1      17.3877971777      1.0000000000
 P 1 
   1       9.6598873210      1.0000000000
 P 1 
   1       5.3666040672      1.0000000000
 P 1 
   1       2.9814467040      1.0000000000
 P 1 
   1       1.6563592800      1.0000000000
 P 1 
   1       0.9201996000      1.0000000000
 P 1 
   1       0.5112220000      1.0000000000
 D 1 
   1      31.2980349199      1.0000000000
 D 1 
   1      17.3877971777      1.0000000000
 D 1 
   1       9.6598873210      1.0000000000
 D 1 
   1       5.3666040672      1.0000000000
 D 1 
   1       2.9814467040      1.0000000000
 D 1 
   1       1.6563592800      1.0000000000
 D 1 
   1       0.9201996000      1.0000000000
 D 1 
   1       0.5112220000      1.0000000000
  end;

----------------------------------
AUXILIARY/JK BASIS SET INFORMATION
----------------------------------
There are 3 groups of distinct atoms

 Group   1 Type C   : 14s12p8d contracted to 14s12p8d pattern {11111111111111/111111111111/11111111}
 Group   2 Type H   : 11s2p contracted to 11s2p pattern {11111111111/11}
 Group   3 Type O   : 14s12p8d contracted to 14s12p8d pattern {11111111111111/111111111111/11111111}

Atom   0C    basis set group =>   1
Atom   1H    basis set group =>   2
Atom   2H    basis set group =>   2
Atom   3C    basis set group =>   1
Atom   4H    basis set group =>   2
Atom   5H    basis set group =>   2
Atom   6O    basis set group =>   3
Atom   7H    basis set group =>   2
Atom   8O    basis set group =>   3
Atom   9H    basis set group =>   2

--------------------------------------
AUXILIARY/JK BASIS SET IN INPUT FORMAT
--------------------------------------

 # Auxiliary/JK basis set for element : H 
 NewAuxJKGTO H 
 S 1 
   1      73.3666746661      1.0000000000
 S 1 
   1      40.7592637034      1.0000000000
 S 1 
   1      22.6440353908      1.0000000000
 S 1 
   1      12.5800196615      1.0000000000
 S 1 
   1       6.9888998120      1.0000000000
 S 1 
   1       3.8827221178      1.0000000000
 S 1 
   1       2.1570678432      1.0000000000
 S 1 
   1       1.1983710240      1.0000000000
 S 1 
   1       0.6657616800      1.0000000000
 S 1 
   1       0.3698676000      1.0000000000
 S 1 
   1       0.2054820000      1.0000000000
 P 1 
   1       2.0300000000      1.0000000000
 P 1 
   1       0.5400000000      1.0000000000
  end;

 # Auxiliary/JK basis set for element : C 
 NewAuxJKGTO C 
 S 1 
   1     606.3022679937      1.0000000000
 S 1 
   1     336.8345933299      1.0000000000
 S 1 
   1     187.1303296277      1.0000000000
 S 1 
   1     103.9612942376      1.0000000000
 S 1 
   1      57.7562745765      1.0000000000
 S 1 
   1      32.0868192091      1.0000000000
 S 1 
   1      17.8260106717      1.0000000000
 S 1 
   1       9.9033392621      1.0000000000
 S 1 
   1       5.5018551456      1.0000000000
 S 1 
   1       3.0565861920      1.0000000000
 S 1 
   1       1.6981034400      1.0000000000
 S 1 
   1       0.9433908000      1.0000000000
 S 1 
   1       0.5241060000      1.0000000000
 S 1 
   1       0.2911700000      1.0000000000
 P 1 
   1     187.1303296277      1.0000000000
 P 1 
   1     103.9612942376      1.0000000000
 P 1 
   1      57.7562745765      1.0000000000
 P 1 
   1      32.0868192091      1.0000000000
 P 1 
   1      17.8260106717      1.0000000000
 P 1 
   1       9.9033392621      1.0000000000
 P 1 
   1       5.5018551456      1.0000000000
 P 1 
   1       3.0565861920      1.0000000000
 P 1 
   1       1.6981034400      1.0000000000
 P 1 
   1       0.9433908000      1.0000000000
 P 1 
   1       0.5241060000      1.0000000000
 P 1 
   1       0.2911700000      1.0000000000
 D 1 
   1      17.8260106717      1.0000000000
 D 1 
   1       9.9033392621      1.0000000000
 D 1 
   1       5.5018551456      1.0000000000
 D 1 
   1       3.0565861920      1.0000000000
 D 1 
   1       1.6981034400      1.0000000000
 D 1 
   1       0.9433908000      1.0000000000
 D 1 
   1       0.5241060000      1.0000000000
 D 1 
   1       0.2911700000      1.0000000000
  end;

 # Auxiliary/JK basis set for element : O 
 NewAuxJKGTO O 
 S 1 
   1    1064.5157744558      1.0000000000
 S 1 
   1     591.3976524755      1.0000000000
 S 1 
   1     328.5542513753      1.0000000000
 S 1 
   1     182.5301396529      1.0000000000
 S 1 
   1     101.4056331405      1.0000000000
 S 1 
   1      56.3364628558      1.0000000000
 S 1 
   1      31.2980349199      1.0000000000
 S 1 
   1      17.3877971777      1.0000000000
 S 1 
   1       9.6598873210      1.0000000000
 S 1 
   1       5.3666040672      1.0000000000
 S 1 
   1       2.9814467040      1.0000000000
 S 1 
   1       1.6563592800      1.0000000000
 S 1 
   1       0.9201996000      1.0000000000
 S 1 
   1       0.5112220000      1.0000000000
 P 1 
   1     328.5542513753      1.0000000000
 P 1 
   1     182.5301396529      1.0000000000
 P 1 
   1     101.4056331405      1.0000000000
 P 1 
   1      56.3364628558      1.0000000000
 P 1 
   1      31.2980349199      1.0000000000
 P 1 
   1      17.3877971777      1.0000000000
 P 1 
   1       9.6598873210      1.0000000000
 P 1 
   1       5.3666040672      1.0000000000
 P 1 
   1       2.9814467040      1.0000000000
 P 1 
   1       1.6563592800      1.0000000000
 P 1 
   1       0.9201996000      1.0000000000
 P 1 
   1       0.5112220000      1.0000000000
 D 1 
   1      31.2980349199      1.0000000000
 D 1 
   1      17.3877971777      1.0000000000
 D 1 
   1       9.6598873210      1.0000000000
 D 1 
   1       5.3666040672      1.0000000000
 D 1 
   1       2.9814467040      1.0000000000
 D 1 
   1       1.6563592800      1.0000000000
 D 1 
   1       0.9201996000      1.0000000000
 D 1 
   1       0.5112220000      1.0000000000
  end;

------------------------------------------------------------------------------
                           ORCA GTO INTEGRAL CALCULATION
                           -- RI-GTO INTEGRALS CHOSEN --
------------------------------------------------------------------------------
------------------------------------------------------------------------------
                   ___                                                        
                  /   \      - P O W E R E D   B Y -                         
                 /     \                                                     
                 |  |  |   _    _      __       _____    __    __             
                 |  |  |  | |  | |    /  \     |  _  \  |  |  /  |          
                  \  \/   | |  | |   /    \    | | | |  |  | /  /          
                 / \  \   | |__| |  /  /\  \   | |_| |  |  |/  /          
                |  |  |   |  __  | /  /__\  \  |    /   |      \           
                |  |  |   | |  | | |   __   |  |    \   |  |\   \          
                \     /   | |  | | |  |  |  |  | |\  \  |  | \   \       
                 \___/    |_|  |_| |__|  |__|  |_| \__\ |__|  \__/        
                                                                              
                      - O R C A' S   B I G   F R I E N D -                    
                                      &                                       
                       - I N T E G R A L  F E E D E R -                       
                                                                              
 v1 FN, 2020, v2 2021                                                         
------------------------------------------------------------------------------


Reading SHARK input file eg_p.SHARKINP.tmp ... ok
----------------------
SHARK INTEGRAL PACKAGE
----------------------

Number of atoms                             ...     10
Number of basis functions                   ...     70
Number of shells                            ...     46
Maximum angular momentum                    ...      1
Integral batch strategy                     ... SHARK/LIBINT Hybrid
RI-J (if used) integral strategy            ... SPLIT-RIJ (Revised 2003 algorithm where possible)
Printlevel                                  ...      1
Contraction scheme used                     ... SEGMENTED contraction
Coulomb Range Separation                    ... NOT USED
Exchange Range Separation                   ... NOT USED
Finite Nucleus Model                        ... NOT USED
Auxiliary Coulomb fitting basis             ... AVAILABLE
   # of basis functions in Aux-J            ...    462
   # of shells in Aux-J                     ...    214
   Maximum angular momentum in Aux-J        ...      2
Auxiliary J/K fitting basis                 ... AVAILABLE
   # of basis functions in Aux-JK           ...    462
   # of shells in Aux-JK                    ...    214
   Maximum angular momentum in Aux-JK       ...      2
Auxiliary Correlation fitting basis         ... AVAILABLE
   # of basis functions in Aux-C            ...    462
   # of shells in Aux-C                     ...    214
   Maximum angular momentum in Aux-C        ...      2
Auxiliary 'external' fitting basis          ... NOT available
Integral threshold                          ...     2.500000e-11
Primitive cut-off                           ...     2.500000e-12
Primitive pair pre-selection threshold      ...     2.500000e-12

Calculating pre-screening integrals         ... done (  0.0 sec) Dimension = 46
Organizing shell pair data                  ... done (  0.0 sec)
Shell pair information
Total number of shell pairs                 ...      1081
Shell pairs after pre-screening             ...      1037
Total number of primitive shell pairs       ...      4567
Primitive shell pairs kept                  ...      3274
          la=0 lb=0:    568 shell pairs
          la=1 lb=0:    394 shell pairs
          la=1 lb=1:     75 shell pairs

Calculating one electron integrals          ... done (  0.0 sec)
Calculating RI/J V-Matrix + Cholesky decomp.... done (  0.0 sec)
Calculating RI/JK V-Matrix + Cholesky decomp... done (  0.0 sec)
Calculating RI/C V-Matrix + Cholesky decomp.... done (  0.0 sec)
Calculating Nuclear repulsion               ... done (  0.0 sec) ENN=    128.675164358448 Eh

SHARK setup successfully completed in   0.1 seconds

Maximum memory used throughout the entire GTOINT-calculation: 7.2 MB
-------------------------------------------------------------------------------
                                 ORCA SCF
-------------------------------------------------------------------------------

------------
SCF SETTINGS
------------
Hamiltonian:
 Density Functional     Method          .... DFT(GTOs)
 Exchange Functional    Exchange        .... B88
   X-Alpha parameter    XAlpha          ....  0.666667
   Becke's b parameter  XBeta           ....  0.004200
 Correlation Functional Correlation     .... LYP
 LDA part of GGA corr.  LDAOpt          .... VWN-5
 Gradients option       PostSCFGGA      .... off
 Hybrid DFT is turned on
   Fraction HF Exchange ScalHFX         ....  0.200000
   Scaling of DF-GGA-X  ScalDFX         ....  0.720000
   Scaling of DF-GGA-C  ScalDFC         ....  0.810000
   Scaling of DF-LDA-C  ScalLDAC        ....  1.000000
   Perturbative correction              ....  0.000000
   Density functional embedding theory  .... OFF
   NL short-range parameter             ....  4.800000
 RI-approximation to the Coulomb term is turned on
   Number of AuxJ basis functions       .... 462
   RIJ-COSX (HFX calculated with COS-X)).... on


General Settings:
 Integral files         IntName         .... eg_p
 Hartree-Fock type      HFTyp           .... UHF
 Total Charge           Charge          ....    1
 Multiplicity           Mult            ....    2
 Number of Electrons    NEL             ....   33
 Basis Dimension        Dim             ....   70
 Nuclear Repulsion      ENuc            ....    128.6751643584 Eh

Convergence Acceleration:
 DIIS                   CNVDIIS         .... on
   Start iteration      DIISMaxIt       ....    12
   Startup error        DIISStart       ....  0.200000
   # of expansion vecs  DIISMaxEq       ....     5
   Bias factor          DIISBfac        ....   1.050
   Max. coefficient     DIISMaxC        ....  10.000
 Trust-Rad. Augm. Hess. CNVTRAH         .... auto
   Auto Start mean grad. ratio tolernc. ....  1.125000
   Auto Start start iteration           ....    20
   Auto Start num. interpolation iter.  ....    10
   Max. Number of Micro iterations      ....    16
   Max. Number of Macro iterations      .... Maxiter - #DIIS iter
   Number of Davidson start vectors     ....     2
   Converg. threshold I  (grad. norm)   ....   1.000e-05
   Converg. threshold II (energy diff.) ....   1.000e-08
   Grad. Scal. Fac. for Micro threshold ....   0.100
   Minimum threshold for Micro iter.    ....   0.010
   NR start threshold (gradient norm)   ....   0.001
   Initial trust radius                 ....   0.400
   Minimum AH scaling param. (alpha)    ....   1.000
   Maximum AH scaling param. (alpha)    .... 1000.000
   Orbital update algorithm             .... Taylor
   White noise on init. David. guess    .... on
   Maximum white noise                  ....   0.010
   Quad. conv. algorithm                .... NR
 SOSCF                  CNVSOSCF        .... off
 Level Shifting         CNVShift        .... on
   Level shift para.    LevelShift      ....    0.2500
   Turn off err/grad.   ShiftErr        ....    0.0010
 Zerner damping         CNVZerner       .... off
 Static damping         CNVDamp         .... on
   Fraction old density DampFac         ....    0.7000
   Max. Damping (<1)    DampMax         ....    0.9800
   Min. Damping (>=0)   DampMin         ....    0.0000
   Turn off err/grad.   DampErr         ....    0.1000
 Fernandez-Rico         CNVRico         .... off

SCF Procedure:
 Maximum # iterations   MaxIter         ....   125
 SCF integral mode      SCFMode         .... Direct
   Integral package                     .... SHARK and LIBINT hybrid scheme
 Reset frequency        DirectResetFreq ....    20
 Integral Threshold     Thresh          ....  2.500e-11 Eh
 Primitive CutOff       TCut            ....  2.500e-12 Eh

Convergence Tolerance:
 Convergence Check Mode ConvCheckMode   .... Total+1el-Energy
 Convergence forced     ConvForced      .... 0
 Energy Change          TolE            ....  1.000e-08 Eh
 1-El. energy change                    ....  1.000e-05 Eh
 DIIS Error             TolErr          ....  5.000e-07


Diagonalization of the overlap matrix:
Smallest eigenvalue                        ... 3.884e-03
Time for diagonalization                   ...    0.002 sec
Threshold for overlap eigenvalues          ... 1.000e-08
Number of eigenvalues below threshold      ... 0
Time for construction of square roots      ...    0.000 sec
Total time needed                          ...    0.002 sec

Time for model grid setup =    0.030 sec

------------------------------
INITIAL GUESS: MODEL POTENTIAL
------------------------------
Loading Hartree-Fock densities                     ... done
Calculating cut-offs                               ... done
Initializing the effective Hamiltonian             ... done
Setting up the integral package (SHARK)            ... done
Starting the Coulomb interaction                   ... done (   0.0 sec)
Reading the grid                                   ... done
Mapping shells                                     ... done
Starting the XC term evaluation                    ... done (   0.0 sec)
  promolecular density results
     # of electrons  =     33.997755260
     EX              =    -28.441607533
     EC              =     -1.147022830
     EX+EC           =    -29.588630363
Transforming the Hamiltonian                       ... done (   0.0 sec)
Diagonalizing the Hamiltonian                      ... done (   0.0 sec)
Back transforming the eigenvectors                 ... done (   0.0 sec)
Now organizing SCF variables                       ... done
                      ------------------
                      INITIAL GUESS DONE (   0.1 sec)
                      ------------------
-------------------
DFT GRID GENERATION
-------------------

General Integration Accuracy     IntAcc      ... 4.959
Radial Grid Type                 RadialGrid  ... OptM3 with GC (2021)
Angular Grid (max. ang.)         AngularGrid ... 6 (Lebedev-590)
Angular grid pruning method      GridPruning ... 4 (adaptive)
Weight generation scheme         WeightScheme... Becke
Basis function cutoff            BFCut       ... 1.0000e-11
Integration weight cutoff        WCut        ... 1.0000e-14
Angular grids for H and He will be reduced by one unit
Partially contracted basis set               ... off
Rotationally invariant grid construction     ... off

Total number of grid points                  ...   110788
Total number of batches                      ...     1735
Average number of points per batch           ...       63
Average number of grid points per atom       ...    11079
Time for grid setup =    0.859 sec

--------------------
COSX GRID GENERATION
--------------------

GRIDX 1
-------
General Integration Accuracy     IntAcc      ... 4.020
Radial Grid Type                 RadialGrid  ... OptM3 with GC (2021)
Angular Grid (max. ang.)         AngularGrid ... 2 (Lebedev-110)
Angular grid pruning method      GridPruning ... 4 (adaptive)
Weight generation scheme         WeightScheme... Becke
Basis function cutoff            BFCut       ... 1.0000e-11
Integration weight cutoff        WCut        ... 1.0000e-14
Angular grids for H and He will be reduced by one unit
Partially contracted basis set               ... on
Rotationally invariant grid construction     ... off

Total number of grid points                  ...    12068
Total number of batches                      ...      195
Average number of points per batch           ...       61
Average number of grid points per atom       ...     1207
UseSFitting                                  ... on

GRIDX 2
-------
General Integration Accuracy     IntAcc      ... 4.338
Radial Grid Type                 RadialGrid  ... OptM3 with GC (2021)
Angular Grid (max. ang.)         AngularGrid ... 3 (Lebedev-194)
Angular grid pruning method      GridPruning ... 4 (adaptive)
Weight generation scheme         WeightScheme... Becke
Basis function cutoff            BFCut       ... 1.0000e-11
Integration weight cutoff        WCut        ... 1.0000e-14
Angular grids for H and He will be reduced by one unit
Partially contracted basis set               ... on
Rotationally invariant grid construction     ... off

Total number of grid points                  ...    26439
Total number of batches                      ...      419
Average number of points per batch           ...       63
Average number of grid points per atom       ...     2644
UseSFitting                                  ... on

GRIDX 3
-------
General Integration Accuracy     IntAcc      ... 4.871
Radial Grid Type                 RadialGrid  ... OptM3 with GC (2021)
Angular Grid (max. ang.)         AngularGrid ... 4 (Lebedev-302)
Angular grid pruning method      GridPruning ... 4 (adaptive)
Weight generation scheme         WeightScheme... Becke
Basis function cutoff            BFCut       ... 1.0000e-11
Integration weight cutoff        WCut        ... 1.0000e-14
Angular grids for H and He will be reduced by one unit
Partially contracted basis set               ... on
Rotationally invariant grid construction     ... off

Total number of grid points                  ...    52067
Total number of batches                      ...      818
Average number of points per batch           ...       63
Average number of grid points per atom       ...     5207
UseSFitting                                  ... on

Time for X-Grid setup             =    0.398 sec

--------------
SCF ITERATIONS
--------------
ITER       Energy         Delta-E        Max-DP      RMS-DP      [F,P]     Damp
               ***  Starting incremental Fock matrix formation  ***
  0   -229.6950108264   0.000000000000 0.02463042  0.00128646  0.0906341 0.7000
  1   -229.7200454611  -0.025034634672 0.01802094  0.00088239  0.0413194 0.7000
                               ***Turning on DIIS***
  2   -229.7298733063  -0.009827845182 0.03874942  0.00156929  0.0156662 0.0000
  3   -229.7482734790  -0.018400172761 0.00906165  0.00052949  0.0201566 0.0000
  4   -229.7506521139  -0.002378634924 0.00267204  0.00014312  0.0046587 0.0000
  5   -229.7508593285  -0.000207214568 0.00094739  0.00005800  0.0010391 0.0000
  6   -229.7508969065  -0.000037578003 0.00117539  0.00007875  0.0005572 0.0000
               *** Restarting incremental Fock matrix formation ***
                                   *** Resetting DIIS ***
  7   -229.7509264780  -0.000029571506 0.00061338  0.00004030  0.0004214 0.0000
  8   -229.7509269065  -0.000000428443 0.00068134  0.00002841  0.0009586 0.0000
  9   -229.7509323498  -0.000005443358 0.00035465  0.00001737  0.0003719 0.0000
 10   -229.7509338483  -0.000001498441 0.00020899  0.00001634  0.0003360 0.0000
 11   -229.7509350474  -0.000001199147 0.00007069  0.00000558  0.0000368 0.0000
 12   -229.7509351201  -0.000000072719 0.00001825  0.00000090  0.0000213 0.0000
 13   -229.7509351223  -0.000000002219 0.00000651  0.00000043  0.0000099 0.0000
 14   -229.7509351239  -0.000000001594 0.00000425  0.00000029  0.0000032 0.0000
 15   -229.7509351233   0.000000000613 0.00000101  0.00000008  0.0000017 0.0000
                            ***DIIS convergence achieved***

               *****************************************************
               *                     SUCCESS                       *
               *           SCF CONVERGED AFTER  16 CYCLES          *
               *****************************************************

Old exchange energy                            =     -5.701620152 Eh
New exchange energy                            =     -5.701619542 Eh
Exchange energy change after final integration =      0.000000610 Eh
Total energy after final integration           =   -229.750934515 Eh
Final COS-X integration done in                =     1.326 sec

----------------
TOTAL SCF ENERGY
----------------

Total Energy       :         -229.75093452 Eh           -6251.84077 eV

Components:
Nuclear Repulsion  :          128.67516436 Eh            3501.42923 eV
Electronic Energy  :         -358.42609887 Eh           -9753.27000 eV
One Electron Energy:         -559.43326009 Eh          -15222.95293 eV
Two Electron Energy:          201.00716122 Eh            5469.68293 eV
Max COSX asymmetry :            0.00000017 Eh               0.00000 eV

Virial components:
Potential Energy   :         -459.06924960 Eh          -12491.90936 eV
Kinetic Energy     :          229.31831508 Eh            6240.06859 eV
Virial Ratio       :            2.00188655


DFT components:
N(Alpha)           :       17.000001909975 electrons
N(Beta)            :       16.000001963754 electrons
N(Total)           :       33.000003873729 electrons
E(X)               :      -22.765656788228 Eh       
E(C)               :       -1.320069665764 Eh       
E(XC)              :      -24.085726453993 Eh       
DFET-embed. en.    :        0.000000000000 Eh       

---------------
SCF CONVERGENCE
---------------

  Last Energy change         ...   -1.9013e-09  Tolerance :   1.0000e-08
  Last MAX-Density change    ...    0.0000e+00  Tolerance :   1.0000e-07
  Last RMS-Density change    ...    0.0000e+00  Tolerance :   5.0000e-09
  Last DIIS Error            ...    5.4863e-07  Tolerance :   5.0000e-07

             **** THE GBW FILE WAS UPDATED (eg_p.gbw) ****
             **** DENSITY eg_p.scfp WAS UPDATED ****
             **** ENERGY FILE WAS UPDATED (eg_p.en.tmp) ****
----------------------
UHF SPIN CONTAMINATION
----------------------

Warning: in a DFT calculation there is little theoretical justification to 
         calculate <S**2> as in Hartree-Fock theory. We will do it anyways
         but you should keep in mind that the values have only limited relevance

Expectation value of <S**2>     :     0.754575
Ideal value S*(S+1) for S=0.5   :     0.750000
Deviation                       :     0.004575

             **** THE GBW FILE WAS UPDATED (eg_p.gbw) ****
             **** DENSITY eg_p.scfp WAS UPDATED ****
----------------
ORBITAL ENERGIES
----------------
                 SPIN UP ORBITALS
  NO   OCC          E(Eh)            E(eV) 
   0   1.0000     -19.438745      -528.9551 
   1   1.0000     -19.438324      -528.9437 
   2   1.0000     -10.489992      -285.4472 
   3   1.0000     -10.485839      -285.3342 
   4   1.0000      -1.334158       -36.3043 
   5   1.0000      -1.325643       -36.0726 
   6   1.0000      -1.016086       -27.6491 
   7   1.0000      -0.895620       -24.3711 
   8   1.0000      -0.793446       -21.5908 
   9   1.0000      -0.787426       -21.4270 
  10   1.0000      -0.726049       -19.7568 
  11   1.0000      -0.699353       -19.0304 
  12   1.0000      -0.684411       -18.6238 
  13   1.0000      -0.617048       -16.7907 
  14   1.0000      -0.604512       -16.4496 
  15   1.0000      -0.581046       -15.8111 
  16   1.0000      -0.566831       -15.4243 
  17   0.0000      -0.197810        -5.3827 
  18   0.0000      -0.184591        -5.0230 
  19   0.0000      -0.108659        -2.9568 
  20   0.0000      -0.107336        -2.9208 
  21   0.0000      -0.089531        -2.4363 
  22   0.0000      -0.088149        -2.3987 
  23   0.0000      -0.053967        -1.4685 
  24   0.0000      -0.025495        -0.6937 
  25   0.0000      -0.015573        -0.4238 
  26   0.0000       0.094918         2.5829 
  27   0.0000       0.111677         3.0389 
  28   0.0000       0.167402         4.5553 
  29   0.0000       0.179406         4.8819 
  30   0.0000       0.216290         5.8855 
  31   0.0000       0.239941         6.5291 
  32   0.0000       0.249680         6.7941 
  33   0.0000       0.265341         7.2203 
  34   0.0000       0.309582         8.4242 
  35   0.0000       0.345442         9.4000 
  36   0.0000       0.360304         9.8044 
  37   0.0000       0.381742        10.3877 
  38   0.0000       0.504150        13.7186 
  39   0.0000       0.561071        15.2675 
  40   0.0000       0.622252        16.9323 
  41   0.0000       0.625621        17.0240 
  42   0.0000       0.680091        18.5062 
  43   0.0000       0.690608        18.7924 
  44   0.0000       0.721748        19.6398 
  45   0.0000       0.839839        22.8532 
  46   0.0000       1.141440        31.0602 
  47   0.0000       1.232078        33.5266 
  48   0.0000       1.928317        52.4722 
  49   0.0000       1.951370        53.0995 
  50   0.0000       1.999224        54.4016 
  51   0.0000       2.015444        54.8430 
  52   0.0000       2.025262        55.1102 
  53   0.0000       2.030979        55.2658 
  54   0.0000       2.441492        66.4364 
  55   0.0000       2.538037        69.0635 
  56   0.0000       2.557865        69.6031 
  57   0.0000       2.569264        69.9132 
  58   0.0000       2.720559        74.0302 
  59   0.0000       2.767866        75.3175 
  60   0.0000       4.499253       122.4309 
  61   0.0000       4.520939       123.0210 
  62   0.0000       4.577681       124.5650 
  63   0.0000       4.593400       124.9928 
  64   0.0000       4.737379       128.9106 
  65   0.0000       4.742543       129.0512 
  66   0.0000      23.014466       626.2555 
  67   0.0000      23.209968       631.5753 
  68   0.0000      49.471097      1346.1770 
  69   0.0000      49.508038      1347.1822 

                 SPIN DOWN ORBITALS
  NO   OCC          E(Eh)            E(eV) 
   0   1.0000     -19.427563      -528.6509 
   1   1.0000     -19.427090      -528.6380 
   2   1.0000     -10.488266      -285.4002 
   3   1.0000     -10.484231      -285.2904 
   4   1.0000      -1.310208       -35.6526 
   5   1.0000      -1.300572       -35.3904 
   6   1.0000      -1.002464       -27.2784 
   7   1.0000      -0.887881       -24.1605 
   8   1.0000      -0.785432       -21.3727 
   9   1.0000      -0.777101       -21.1460 
  10   1.0000      -0.712345       -19.3839 
  11   1.0000      -0.676583       -18.4108 
  12   1.0000      -0.670529       -18.2460 
  13   1.0000      -0.597282       -16.2529 
  14   1.0000      -0.574652       -15.6371 
  15   1.0000      -0.536068       -14.5871 
  16   0.0000      -0.457567       -12.4510 
  17   0.0000      -0.192292        -5.2325 
  18   0.0000      -0.182198        -4.9579 
  19   0.0000      -0.106000        -2.8844 
  20   0.0000      -0.105181        -2.8621 
  21   0.0000      -0.085783        -2.3343 
  22   0.0000      -0.082531        -2.2458 
  23   0.0000      -0.051830        -1.4104 
  24   0.0000      -0.020382        -0.5546 
  25   0.0000      -0.004327        -0.1178 
  26   0.0000       0.098087         2.6691 
  27   0.0000       0.114760         3.1228 
  28   0.0000       0.169242         4.6053 
  29   0.0000       0.183154         4.9839 
  30   0.0000       0.220986         6.0133 
  31   0.0000       0.245204         6.6724 
  32   0.0000       0.254865         6.9352 
  33   0.0000       0.271352         7.3839 
  34   0.0000       0.314770         8.5653 
  35   0.0000       0.347260         9.4494 
  36   0.0000       0.361725         9.8430 
  37   0.0000       0.386595        10.5198 
  38   0.0000       0.507999        13.8234 
  39   0.0000       0.581551        15.8248 
  40   0.0000       0.627958        17.0876 
  41   0.0000       0.634278        17.2596 
  42   0.0000       0.698515        19.0076 
  43   0.0000       0.704510        19.1707 
  44   0.0000       0.730127        19.8678 
  45   0.0000       0.844108        22.9693 
  46   0.0000       1.154712        31.4213 
  47   0.0000       1.245930        33.9035 
  48   0.0000       1.926664        52.4272 
  49   0.0000       1.949535        53.0496 
  50   0.0000       2.003030        54.5052 
  51   0.0000       2.021342        55.0035 
  52   0.0000       2.029342        55.2212 
  53   0.0000       2.032980        55.3202 
  54   0.0000       2.443599        66.4937 
  55   0.0000       2.548236        69.3410 
  56   0.0000       2.564680        69.7885 
  57   0.0000       2.571831        69.9831 
  58   0.0000       2.722071        74.0713 
  59   0.0000       2.769268        75.3556 
  60   0.0000       4.543023       123.6219 
  61   0.0000       4.567101       124.2771 
  62   0.0000       4.590234       124.9066 
  63   0.0000       4.604004       125.2813 
  64   0.0000       4.747364       129.1823 
  65   0.0000       4.752640       129.3259 
  66   0.0000      23.016321       626.3059 
  67   0.0000      23.211797       631.6251 
  68   0.0000      49.482251      1346.4805 
  69   0.0000      49.519195      1347.4858 

                    ********************************
                    * MULLIKEN POPULATION ANALYSIS *
                    ********************************

--------------------------------------------
MULLIKEN ATOMIC CHARGES AND SPIN POPULATIONS
--------------------------------------------
   0 C :   -0.162189    0.062084
   1 H :    0.243782    0.000245
   2 H :    0.314686    0.038363
   3 C :   -0.147681    0.058615
   4 H :    0.267727    0.032010
   5 H :    0.303679    0.004591
   6 O :   -0.354687    0.415013
   7 H :    0.444555   -0.014434
   8 O :   -0.344629    0.417678
   9 H :    0.434758   -0.014165
Sum of atomic charges         :    1.0000000
Sum of atomic spin populations:    1.0000000

-----------------------------------------------------
MULLIKEN REDUCED ORBITAL CHARGES AND SPIN POPULATIONS
-----------------------------------------------------
CHARGE
  0 C s       :     3.363979  s :     3.363979
      pz      :     0.845780  p :     2.798211
      px      :     0.877882
      py      :     1.074549
  1 H s       :     0.756218  s :     0.756218
  2 H s       :     0.685314  s :     0.685314
  3 C s       :     3.364445  s :     3.364445
      pz      :     0.820917  p :     2.783235
      px      :     0.805720
      py      :     1.156599
  4 H s       :     0.732273  s :     0.732273
  5 H s       :     0.696321  s :     0.696321
  6 O s       :     3.938670  s :     3.938670
      pz      :     1.485796  p :     4.416018
      px      :     1.322132
      py      :     1.608090
  7 H s       :     0.555445  s :     0.555445
  8 O s       :     3.937825  s :     3.937825
      pz      :     1.513587  p :     4.406804
      px      :     1.559967
      py      :     1.333250
  9 H s       :     0.565242  s :     0.565242

SPIN
  0 C s       :    -0.004796  s :    -0.004796
      pz      :     0.071969  p :     0.066881
      px      :    -0.002190
      py      :    -0.002898
  1 H s       :     0.000245  s :     0.000245
  2 H s       :     0.038363  s :     0.038363
  3 C s       :    -0.006851  s :    -0.006851
      pz      :     0.072467  p :     0.065466
      px      :    -0.002485
      py      :    -0.004517
  4 H s       :     0.032010  s :     0.032010
  5 H s       :     0.004591  s :     0.004591
  6 O s       :     0.011162  s :     0.011162
      pz      :     0.347467  p :     0.403851
      px      :     0.048388
      py      :     0.007996
  7 H s       :    -0.014434  s :    -0.014434
  8 O s       :     0.011175  s :     0.011175
      pz      :     0.365811  p :     0.406503
      px      :     0.028847
      py      :     0.011844
  9 H s       :    -0.014165  s :    -0.014165


                     *******************************
                     * LOEWDIN POPULATION ANALYSIS *
                     *******************************

-------------------------------------------
LOEWDIN ATOMIC CHARGES AND SPIN POPULATIONS
-------------------------------------------
   0 C :    0.033963    0.079082
   1 H :    0.105818    0.000497
   2 H :    0.150937    0.029212
   3 C :    0.036305    0.075022
   4 H :    0.122605    0.024116
   5 H :    0.140576    0.003298
   6 O :   -0.103664    0.403830
   7 H :    0.308478   -0.010581
   8 O :   -0.097356    0.405981
   9 H :    0.302337   -0.010458

----------------------------------------------------
LOEWDIN REDUCED ORBITAL CHARGES AND SPIN POPULATIONS
----------------------------------------------------
CHARGE
  0 C s       :     2.931488  s :     2.931488
      pz      :     0.987561  p :     3.034549
      px      :     0.957342
      py      :     1.089646
  1 H s       :     0.894182  s :     0.894182
  2 H s       :     0.849063  s :     0.849063
  3 C s       :     2.931418  s :     2.931418
      pz      :     0.978219  p :     3.032277
      px      :     0.928051
      py      :     1.126007
  4 H s       :     0.877395  s :     0.877395
  5 H s       :     0.859424  s :     0.859424
  6 O s       :     3.592097  s :     3.592097
      pz      :     1.497730  p :     4.511567
      px      :     1.366125
      py      :     1.647712
  7 H s       :     0.691522  s :     0.691522
  8 O s       :     3.593497  s :     3.593497
      pz      :     1.522550  p :     4.503859
      px      :     1.614439
      py      :     1.366870
  9 H s       :     0.697663  s :     0.697663

SPIN
  0 C s       :     0.002071  s :     0.002071
      pz      :     0.078565  p :     0.077012
      px      :     0.000162
      py      :    -0.001715
  1 H s       :     0.000497  s :     0.000497
  2 H s       :     0.029212  s :     0.029212
  3 C s       :     0.001630  s :     0.001630
      pz      :     0.077887  p :     0.073392
      px      :    -0.001987
      py      :    -0.002508
  4 H s       :     0.024116  s :     0.024116
  5 H s       :     0.003298  s :     0.003298
  6 O s       :     0.007144  s :     0.007144
      pz      :     0.339204  p :     0.396686
      px      :     0.050953
      py      :     0.006530
  7 H s       :    -0.010581  s :    -0.010581
  8 O s       :     0.007421  s :     0.007421
      pz      :     0.357249  p :     0.398560
      px      :     0.032444
      py      :     0.008867
  9 H s       :    -0.010458  s :    -0.010458


                      *****************************
                      * MAYER POPULATION ANALYSIS *
                      *****************************

  NA   - Mulliken gross atomic population
  ZA   - Total nuclear charge
  QA   - Mulliken gross atomic charge
  VA   - Mayer's total valence
  BVA  - Mayer's bonded valence
  FA   - Mayer's free valence

  ATOM       NA         ZA         QA         VA         BVA        FA
  0 C      6.1622     6.0000    -0.1622     3.3935     3.3839     0.0096
  1 H      0.7562     1.0000     0.2438     0.9039     0.9039     0.0000
  2 H      0.6853     1.0000     0.3147     0.8687     0.8673     0.0015
  3 C      6.1477     6.0000    -0.1477     3.3733     3.3649     0.0084
  4 H      0.7323     1.0000     0.2677     0.8923     0.8912     0.0011
  5 H      0.6963     1.0000     0.3037     0.8756     0.8756     0.0000
  6 O      8.3547     8.0000    -0.3547     2.1644     2.0094     0.1550
  7 H      0.5554     1.0000     0.4446     0.7791     0.7789     0.0002
  8 O      8.3446     8.0000    -0.3446     2.1798     2.0227     0.1571
  9 H      0.5652     1.0000     0.4348     0.7874     0.7872     0.0002

  Mayer bond orders larger than 0.100000
B(  0-C ,  1-H ) :   0.9011 B(  0-C ,  2-H ) :   0.8505 B(  0-C ,  3-C ) :   0.6993 
B(  0-C ,  6-O ) :   0.9298 B(  3-C ,  4-H ) :   0.8755 B(  3-C ,  5-H ) :   0.8724 
B(  3-C ,  8-O ) :   0.9211 B(  6-O ,  7-H ) :   0.7623 B(  6-O ,  8-O ) :   0.2588 
B(  8-O ,  9-H ) :   0.7654 

-------
TIMINGS
-------

Total SCF time: 0 days 0 hours 0 min 17 sec 

Total time                  ....      17.107 sec
Sum of individual times     ....      17.027 sec  ( 99.5%)

Fock matrix formation       ....      15.643 sec  ( 91.4%)
  Split-RI-J                ....       0.542 sec  (  3.5% of F)
  Chain of spheres X        ....      10.021 sec  ( 64.1% of F)
  XC integration            ....       5.072 sec  ( 32.4% of F)
    Basis function eval.    ....       1.483 sec  ( 29.2% of XC)
    Density eval.           ....       1.679 sec  ( 33.1% of XC)
    XC-Functional eval.     ....       0.684 sec  ( 13.5% of XC)
    XC-Potential eval.      ....       1.000 sec  ( 19.7% of XC)
Diagonalization             ....       0.016 sec  (  0.1%)
Density matrix formation    ....       0.001 sec  (  0.0%)
Population analysis         ....       0.004 sec  (  0.0%)
Initial guess               ....       0.035 sec  (  0.2%)
Orbital Transformation      ....       0.000 sec  (  0.0%)
Orbital Orthonormalization  ....       0.000 sec  (  0.0%)
DIIS solution               ....       0.041 sec  (  0.2%)
Grid generation             ....       1.288 sec  (  7.5%)

Maximum memory used throughout the entire SCF-calculation: 49.8 MB


-------------------------------------------------------------------------------
                          DFT DISPERSION CORRECTION                            
                                                                               
                              DFTD3 V3.1  Rev 1                                
                          USING Becke-Johnson damping                          
-------------------------------------------------------------------------------
The B3LYP functional is recognized
Active option DFTDOPT                   ...         4   

molecular C6(AA) [au] = 644.667754 


            DFT-D V3
 parameters
 s6 scaling factor         :     1.0000 
 a1 scaling factor         :     0.3981 
 s8 scaling factor         :     1.9889 
 a2 scaling factor         :     4.4211 
 ad hoc parameters k1-k3   :    16.0000     1.3333    -4.0000 

 Edisp/kcal,au: -5.458832046762  -0.008699201670 
 E6   /kcal   :  -2.747572763 
 E8   /kcal   :  -2.711259284 
 % E8         :  49.667387837 

-------------------------   ----------------
Dispersion correction           -0.008699202
-------------------------   ----------------


-------------------------   --------------------
FINAL SINGLE POINT ENERGY      -229.759633716901
-------------------------   --------------------

------------------------------------------------------------------------------
                         ORCA SCF GRADIENT CALCULATION
------------------------------------------------------------------------------

 ... reading COSX grid (gridx3)
Gradient of the Kohn-Sham DFT energy:
Kohn-Sham wavefunction type      ... UKS
Hartree-Fock exchange scaling    ...    0.200
Number of operators              ...    2
Number of atoms                  ...   10
Basis set dimensions             ...   70
Integral neglect threshold       ... 2.5e-11
Integral primitive cutoff        ... 2.5e-12
SHARK Integral package           ... ON

Nuc. rep. gradient       (SHARK) ... done (  0.0 sec)
HCore & Overlap gradient (SHARK) ... done (  0.0 sec)
RI-J gradient            (SHARK) ... done (  0.1 sec)
COSX-gradient                    ... done (  1.9 sec)
Exchange-correlation gradient    ... done
Dispersion correction            ... done

------------------
CARTESIAN GRADIENT
------------------

   1   C   :    0.002758538   -0.008703115    0.058832496
   2   H   :   -0.002471368   -0.000776495   -0.006471553
   3   H   :    0.002488238    0.005787591   -0.009851362
   4   C   :   -0.000806754    0.010670878   -0.059400025
   5   H   :    0.002618684   -0.002002380    0.009210019
   6   H   :   -0.005543986   -0.003903311    0.006855946
   7   O   :   -0.023695614    0.000782610   -0.018028654
   8   H   :    0.018124032   -0.003887226    0.007428952
   9   O   :    0.012247275    0.021586461    0.016419784
  10   H   :   -0.005704752   -0.019545665   -0.005025203

Difference to translation invariance:
           :    0.0000142916    0.0000093490   -0.0000296014

Difference to rotation invariance:
           :   -0.0001064712   -0.0002243653    0.0001408209

Norm of the cartesian gradient     ...    0.1008603540
RMS gradient                       ...    0.0184144970
MAX gradient                       ...    0.0594000253

-------
TIMINGS
-------

Total SCF gradient time            ...        4.384 sec

One electron gradient       ....       0.012 sec  (  0.3%)
RI-J Coulomb gradient       ....       0.115 sec  (  2.6%)
COSX gradient               ....       1.920 sec  ( 43.8%)
XC gradient                 ....       2.218 sec  ( 50.6%)

Maximum memory used throughout the entire SCFGRAD-calculation: 37.6 MB
------------------------------------------------------------------------------
                         ORCA GEOMETRY RELAXATION STEP
------------------------------------------------------------------------------

Reading the OPT-File                    .... done
Getting information on internals        .... done
Copying old internal coords+grads       .... done
Making the new internal coordinates     .... (new redundants).... done
Validating the new internal coordinates .... (new redundants).... done
Calculating the B-matrix                .... done
Calculating the G,G- and P matrices     .... done
Transforming gradient to internals      .... done
Projecting the internal gradient        .... done
Number of atoms                         ....  10
Number of internal coordinates          ....  38
Current Energy                          ....  -229.759633717 Eh
Current gradient norm                   ....     0.100860354 Eh/bohr
Maximum allowed component of the step   ....  0.300
Current trust radius                    ....  0.300
Evaluating the initial hessian          ....  (Almloef) done
Projecting the Hessian                  .... done
Forming the augmented Hessian           .... done
Diagonalizing the augmented Hessian     .... done
Last element of RFO vector              ....  0.976949106
Lowest eigenvalues of augmented Hessian:
 -0.010732798  0.011154788  0.017090309  0.017276182  0.101378896
Length of the computed step             ....  0.218509181
The final length of the internal step   ....  0.218509181
Converting the step to cartesian space:
 Initial RMS(Int)=    0.0354468699
Transforming coordinates:
 Iter   0:  RMS(Cart)=    0.0452372701 RMS(Int)=    1.4379600225
 Iter   1:  RMS(Cart)=    0.0020306969 RMS(Int)=    0.0017477376
 Iter   2:  RMS(Cart)=    0.0001709922 RMS(Int)=    0.0001255150
 Iter   3:  RMS(Cart)=    0.0000146903 RMS(Int)=    0.0000113302
 Iter   4:  RMS(Cart)=    0.0000012908 RMS(Int)=    0.0000011171
 Iter   5:  RMS(Cart)=    0.0000001208 RMS(Int)=    0.0000000792
 Iter   6:  RMS(Cart)=    0.0000000102 RMS(Int)=    0.0000000097
done
Storing new coordinates                 .... done

                                .--------------------.
          ----------------------|Geometry convergence|-------------------------
          Item                value                   Tolerance       Converged
          ---------------------------------------------------------------------
          RMS gradient        0.0095673096            0.0001000000      NO
          MAX gradient        0.0319257912            0.0003000000      NO
          RMS step            0.0354468699            0.0020000000      NO
          MAX step            0.0830699931            0.0040000000      NO
          ........................................................
          Max(Bonds)      0.0440      Max(Angles)    3.06
          Max(Dihed)        4.07      Max(Improp)    0.00
          ---------------------------------------------------------------------

The optimization has not yet converged - more geometry cycles are needed


    ---------------------------------------------------------------------------
                         Redundant Internal Coordinates
                            (Angstroem and degrees)

        Definition                    Value    dE/dq     Step     New-Value
    ----------------------------------------------------------------------------
     1. B(H   1,C   0)                1.0951  0.001636 -0.0024    1.0927   
     2. B(H   2,C   0)                1.0951  0.002900 -0.0042    1.0909   
     3. B(C   3,C   0)                1.5300 -0.031926  0.0440    1.5739   
     4. B(H   4,C   3)                1.0951  0.000314 -0.0005    1.0946   
     5. B(H   5,C   3)                1.0951  0.006138 -0.0089    1.0861   
     6. B(O   6,C   0)                1.4400  0.009802 -0.0109    1.4291   
     7. B(H   7,O   6)                0.9661 -0.016911  0.0172    0.9834   
     8. B(O   8,C   3)                1.4400  0.010384 -0.0115    1.4285   
     9. B(H   9,O   8)                0.9661 -0.018223  0.0186    0.9847   
    10. A(H   1,C   0,C   3)          111.38  0.000553    0.32    111.71   
    11. A(H   2,C   0,O   6)          107.49 -0.005123   -0.28    107.22   
    12. A(H   1,C   0,O   6)          107.49 -0.010797    2.84    110.34   
    13. A(H   1,C   0,H   2)          107.49 -0.004909    2.06    109.56   
    14. A(C   3,C   0,O   6)          111.38  0.012754   -2.40    108.98   
    15. A(H   2,C   0,C   3)          111.38  0.006197   -2.25    109.13   
    16. A(H   4,C   3,O   8)          107.49 -0.009221    2.04    109.53   
    17. A(H   4,C   3,H   5)          107.49 -0.005569    2.12    109.61   
    18. A(C   0,C   3,O   8)          111.38  0.007916   -1.64    109.74   
    19. A(C   0,C   3,H   5)          111.38  0.001993   -0.95    110.43   
    20. A(C   0,C   3,H   4)          111.38  0.005836   -1.03    110.35   
    21. A(H   5,C   3,O   8)          107.49 -0.002023   -0.28    107.21   
    22. A(C   0,O   6,H   7)          109.00 -0.019333    3.06    112.06   
    23. A(C   3,O   8,H   9)          109.00 -0.018529    2.93    111.93   
    24. D(H   4,C   3,C   0,O   6)    -60.00  0.003635   -2.52    -62.52   
    25. D(H   4,C   3,C   0,H   2)    180.00 -0.002711    0.99    180.99   
    26. D(H   5,C   3,C   0,H   1)    180.00 -0.002818    1.02    181.02   
    27. D(H   5,C   3,C   0,O   6)     60.00  0.001871   -1.18     58.82   
    28. D(O   8,C   3,C   0,H   1)    -60.00  0.001332   -1.10    -61.10   
    29. D(H   4,C   3,C   0,H   1)     60.00 -0.001053   -0.32     59.68   
    30. D(O   8,C   3,C   0,H   2)     60.00 -0.000325    0.21     60.21   
    31. D(O   8,C   3,C   0,O   6)    180.00  0.006020   -3.30    176.70   
    32. D(H   5,C   3,C   0,H   2)    -60.00 -0.004475    2.33    -57.67   
    33. D(H   7,O   6,C   0,C   3)    101.89 -0.003188    0.94    102.82   
    34. D(H   7,O   6,C   0,H   2)   -135.84  0.009013   -3.53   -139.37   
    35. D(H   7,O   6,C   0,H   1)    -20.39 -0.004633    0.14    -20.24   
    36. D(H   9,O   8,C   3,H   5)   -159.61  0.004757    0.73   -158.88   
    37. D(H   9,O   8,C   3,H   4)    -44.16 -0.007322    4.07    -40.09   
    38. D(H   9,O   8,C   3,C   0)     78.11 -0.001283    3.12     81.23   
    ----------------------------------------------------------------------------

         *************************************************************
         *                GEOMETRY OPTIMIZATION CYCLE   2            *
         *************************************************************
---------------------------------
CARTESIAN COORDINATES (ANGSTROEM)
---------------------------------
  C     -1.814011    0.028159   -1.731556
  H     -1.803892    1.047893   -2.124001
  H     -0.932725   -0.508215   -2.085959
  C     -1.829027    0.009252   -0.157794
  H     -2.715327    0.528128    0.220908
  H     -1.820909   -1.013143    0.208759
[...]
     18       0.000000   0.000000   0.000000   0.000000   0.000000   0.000000
     19       0.000000   0.000000   0.000000   0.000000   0.000000   0.000000
     20       0.000000   0.000000   0.000000   0.000000   0.000000   0.000000
     21       0.000000   0.000000   0.000000   0.000000   0.000000   0.000000
     22       0.000000   0.000000   0.000000   0.000000   0.000000   0.000000
     23       0.000000   0.000000   0.000000   0.000000   0.000000   0.000000
     24       0.000000   0.000000   0.000000   0.000000   0.000000   0.000000
     25       0.000000   0.000000   0.000000   0.000000   0.000000   0.000000
     26       0.000000   0.000000   0.000000   0.000000   0.000000   0.000000
     27       0.000000   0.000000   0.000000   0.000000   0.000000   0.000000
     28       0.000000   0.000000   0.000000   0.000000   0.000000   0.000000
     29       0.000000   0.000000   0.000000   0.000000   0.000000   0.000000
                  6          7          8          9         10         11    
      0      -0.106801  -0.128862  -0.064448   0.180594  -0.019332   0.031898
      1       0.149275  -0.130783  -0.049897   0.095180   0.015742  -0.056789
      2      -0.035250  -0.421871   0.247856  -0.356116  -0.001555   0.006044
      3      -0.379448  -0.075184   0.006475   0.217633   0.058208   0.028844
      4       0.148512  -0.078746  -0.013937   0.105442  -0.029732  -0.022608
      5      -0.023927  -0.191511   0.387798  -0.291576  -0.181819   0.139034
      6       0.028457  -0.138285  -0.036709   0.192134  -0.017431   0.010770
      7       0.376518  -0.207021  -0.030652   0.041274  -0.042125  -0.050495
      8      -0.008049  -0.139470   0.369016   0.002811   0.211804  -0.121569
      9      -0.072387   0.171080  -0.081110  -0.179867  -0.003678  -0.031945
     10       0.169457   0.053085  -0.023197  -0.095228   0.025232   0.056497
     11       0.029882   0.427429   0.244489   0.355318   0.000731   0.004203
     12       0.070084   0.103087  -0.014748  -0.206802  -0.007234  -0.006109
     13       0.401154   0.028894   0.022340  -0.123006  -0.060199   0.040489
     14       0.015152   0.200594   0.386545   0.292096   0.184951   0.135952
     15      -0.335971   0.245437  -0.052238  -0.135318   0.047490  -0.036569
     16       0.171235   0.014341  -0.006153  -0.142564  -0.012405   0.032176
     17      -0.001553   0.148851   0.366835  -0.002169  -0.212405  -0.120481
     18       0.091123  -0.148193   0.053355   0.108917  -0.014708   0.010360
     19      -0.131053  -0.043457   0.024121   0.072649  -0.016796  -0.000011
     20      -0.013853  -0.263505  -0.212791   0.241098   0.039837  -0.046328
     21      -0.046460  -0.154428   0.091186   0.078126   0.168137  -0.166374
     22      -0.358364  -0.031677   0.057480   0.013823   0.003137   0.011226
     23       0.016043  -0.195335  -0.288726   0.261392  -0.616052   0.657943
     24       0.064400   0.111009   0.050020  -0.115640   0.022502   0.005645
     25      -0.145544   0.111399   0.026449  -0.061819   0.003029   0.007775
     26       0.018481   0.258655  -0.215565  -0.240585  -0.039951  -0.046065
     27       0.330023   0.106500   0.099677  -0.047730  -0.098699  -0.084029
     28      -0.146815   0.121653   0.039228  -0.066285  -0.128394  -0.130553
     29      -0.007150   0.187620  -0.289217  -0.261182   0.625159   0.653496
                 12         13         14         15         16         17    
      0      -0.024139   0.053299   0.069308  -0.016240  -0.081926   0.136223
      1       0.035848  -0.073698   0.035790  -0.039091  -0.080551   0.135622
      2       0.022192  -0.003165   0.017363  -0.024034  -0.023446   0.095163
      3       0.246100  -0.267707  -0.142085   0.131745  -0.300140   0.462017
      4      -0.063049   0.004025  -0.052550   0.051286  -0.066324   0.146148
      5      -0.413864   0.340413  -0.356176   0.352279   0.095063   0.054901
      6      -0.105859   0.157152   0.173350  -0.133098   0.088670  -0.054736
      7      -0.188201   0.193257   0.230169  -0.189188   0.103043  -0.088484
      8       0.359119  -0.332273  -0.062004  -0.245198   0.479393  -0.393411
      9      -0.017833  -0.034897  -0.066530  -0.040022   0.111857   0.185736
     10       0.038921   0.083693  -0.041158   0.006128   0.028415   0.048389
     11      -0.023522  -0.006015  -0.017294  -0.024517   0.024527   0.096277
     12      -0.079483  -0.139459   0.114897   0.109737   0.213079   0.365202
     13      -0.232474  -0.220839   0.104033   0.097262   0.218539   0.320226
     14       0.420613   0.343421   0.356895   0.348448  -0.102958   0.053233
     15       0.221142   0.250281  -0.289087  -0.228590  -0.125866  -0.099434
     16      -0.016856   0.025021  -0.026943  -0.022153  -0.034672  -0.010763
     17      -0.356973  -0.329252   0.058200  -0.252575  -0.476590  -0.392100
     18       0.012126  -0.023483  -0.058290   0.033394   0.052129  -0.116357
     19      -0.007102  -0.011711  -0.063100   0.045038   0.034167  -0.111014
     20      -0.026795   0.012349  -0.026477   0.023338   0.016105  -0.043820
     21      -0.113351   0.180427   0.178856  -0.163900   0.173400  -0.095824
     22      -0.102339   0.275882   0.450098  -0.418592   0.291296  -0.066299
     23       0.246231  -0.154474   0.110113  -0.180323   0.139206  -0.098380
     24      -0.000647  -0.022498   0.084042   0.054605  -0.056787  -0.155134
     25      -0.013428  -0.013719   0.017789   0.005472  -0.027190  -0.042923
     26       0.027205   0.012329   0.027165   0.023565  -0.016509  -0.044863
     27       0.149384   0.329859  -0.477787  -0.442215  -0.331844  -0.104470
     28       0.037856   0.007181   0.078340   0.072464  -0.001382  -0.050144
     29      -0.245778  -0.150139  -0.118783  -0.188570  -0.140587  -0.097820
                 18         19         20         21         22         23    
      0       0.056685   0.014682   0.089751   0.075643  -0.065558  -0.068938
      1       0.060792   0.035593  -0.024930  -0.042630  -0.039294  -0.037538
      2      -0.023447  -0.089033   0.006776   0.011158  -0.008344  -0.001789
      3       0.190393   0.112824  -0.188852  -0.222771   0.503963   0.502577
      4       0.178353   0.166349  -0.040814  -0.082456  -0.017753  -0.017899
      5       0.473839   0.474199  -0.045367  -0.113799   0.015171   0.006477
      6       0.065208   0.027478   0.298992   0.301924   0.210524   0.201928
      7      -0.021875  -0.066502   0.255666   0.269950   0.444506   0.438072
      8       0.422513   0.454437   0.244919   0.216881  -0.040968  -0.058002
      9      -0.081442   0.038934   0.025230  -0.001906  -0.066900   0.068468
     10      -0.016141  -0.008347   0.092457  -0.084200  -0.035538   0.039730
     11       0.023363  -0.088385   0.005164  -0.008834  -0.008310   0.001684
     12      -0.244971   0.193729  -0.138182   0.180087   0.244833  -0.248197
     13      -0.081812   0.022233  -0.145508   0.145161   0.436498  -0.442746
     14      -0.476240   0.474188  -0.047447   0.110758   0.006819   0.001706
     15      -0.009996  -0.048102   0.382598  -0.373396   0.484896  -0.483906
     16      -0.078693   0.069902   0.132635  -0.119131  -0.051985   0.057306
     17      -0.423924   0.451213   0.252684  -0.210821  -0.033110   0.051081
     18      -0.067616  -0.023507  -0.058848  -0.046716   0.003857   0.002991
     19      -0.064520  -0.037340   0.031487   0.043629   0.001206  -0.001415
     20      -0.012031   0.006022  -0.013660  -0.010371   0.007556   0.003602
     21      -0.026350   0.038838  -0.269242  -0.265086   0.010895   0.008144
     22       0.056035   0.101883  -0.374204  -0.385432   0.011751   0.015365
     23       0.046610   0.037541  -0.064013  -0.063564   0.005657   0.010640
     24       0.089931  -0.043944  -0.002967  -0.013256   0.002914  -0.000316
     25       0.024545  -0.000459  -0.068916   0.060721   0.002906  -0.003432
     26       0.012461   0.005525  -0.012307   0.008252   0.007507  -0.003583
     27      -0.033480   0.106948  -0.474262   0.452493   0.015746  -0.017400
     28       0.050426  -0.018585  -0.038343   0.026922   0.003394   0.000711
     29      -0.048627   0.039207  -0.070898   0.066480   0.005788  -0.010945
                 24         25         26         27         28         29    
      0      -0.025178   0.030455  -0.043643  -0.044610   0.000735  -0.000187
      1      -0.030084   0.034291   0.054282   0.057657  -0.004062   0.004176
      2       0.012653  -0.015083  -0.001034  -0.002120  -0.000345   0.000670
      3      -0.012930   0.016364   0.008085   0.011040  -0.003158   0.005272
      4       0.523912  -0.619242  -0.355371  -0.379514   0.011914  -0.014681
      5      -0.121363   0.141553   0.088079   0.095174  -0.004453   0.004193
      6       0.294025  -0.365314   0.504178   0.509749  -0.019881   0.014134
      7      -0.176344   0.219349  -0.291999  -0.300192   0.011434  -0.006763
      8      -0.038742   0.044024  -0.075854  -0.076785   0.001607  -0.004283
      9      -0.046442  -0.037565   0.024530  -0.025397  -0.003088  -0.003454
     10      -0.006952  -0.006782  -0.067493   0.066100   0.002727   0.002297
     11       0.014752   0.012264   0.000963   0.000030  -0.000454  -0.000774
     12       0.528587   0.433863  -0.310863   0.311096   0.008620   0.009819
     13      -0.342460  -0.282157   0.200573  -0.203534  -0.009036  -0.012206
     14      -0.128906  -0.104314   0.081913  -0.083336  -0.004110  -0.003745
     15       0.003403   0.002721   0.014183  -0.009413  -0.000603  -0.001647
     16       0.413308   0.357546   0.596968  -0.571043  -0.022848  -0.015362
     17      -0.057033  -0.045945  -0.093717   0.089474   0.002208   0.004665
     18       0.001087  -0.000376   0.001923   0.001963   0.038855  -0.039182
     19       0.000384  -0.000455  -0.001271  -0.001503  -0.019273   0.018954
     20       0.000446  -0.000515   0.000073   0.000271   0.010368  -0.010568
     21       0.002265  -0.006837  -0.021882  -0.018475  -0.602193   0.603280
     22       0.004040  -0.000904   0.019047   0.017537   0.330539  -0.329997
     23       0.001800  -0.002567  -0.000944   0.000505  -0.157613   0.158639
     24       0.000977   0.000408  -0.000098   0.000268   0.003578   0.004009
     25       0.000750  -0.000033   0.002371  -0.002395   0.043504   0.043526
     26       0.000524   0.000432   0.000022  -0.000203   0.009371   0.009553
     27       0.005305   0.003406   0.005087  -0.005227  -0.028250  -0.029195
     28       0.000846   0.005360  -0.029257   0.023977  -0.690688  -0.689818
     29       0.002303   0.002153  -0.000128  -0.001208  -0.141423  -0.142125


-----------
IR SPECTRUM
-----------

 Mode   freq       eps      Int      T**2         TX        TY        TZ
       cm**-1   L/(mol*cm) km/mol    a.u.
----------------------------------------------------------------------------
  6:    114.75   0.000801    4.05  0.002178  (-0.022898  0.040664 -0.000559)
  7:    208.28   0.000002    0.01  0.000003  (-0.000823  0.001374  0.000131)
  8:    273.70   0.001947    9.84  0.002220  (-0.012513 -0.006330  0.044982)
  9:    454.41   0.000009    0.05  0.000006  ( 0.001340 -0.002097 -0.000127)
 10:    498.07   0.000273    1.38  0.000171  ( 0.006317 -0.011388  0.001299)
 11:    536.06   0.071466  361.16  0.041603  (-0.025644 -0.011201  0.202040)
 12:    858.73   0.000219    1.10  0.000079  ( 0.004443 -0.007724  0.000195)
 13:    963.28   0.017832   90.12  0.005777  ( 0.065071  0.036421 -0.014701)
 14:   1087.77   0.001901    9.61  0.000545  (-0.011595  0.020268 -0.000341)
 15:   1125.56   0.051747  261.51  0.014347  (-0.089289 -0.051189 -0.061272)
 16:   1149.28   0.000773    3.91  0.000210  (-0.006637  0.012880  0.000191)
 17:   1199.78   0.023297  117.73  0.006060  ( 0.057445  0.032972  0.040896)
 18:   1239.90   0.000379    1.91  0.000095  (-0.004763  0.008519 -0.000090)
 19:   1287.15   0.002333   11.79  0.000566  ( 0.017963  0.010293  0.011704)
 20:   1361.18   0.007354   37.17  0.001686  (-0.035978 -0.019782 -0.000554)
 21:   1365.20   0.002378   12.02  0.000544  ( 0.010897 -0.020611  0.000293)
 22:   1514.98   0.001033    5.22  0.000213  ( 0.012641  0.007145  0.001366)
 23:   1535.37   0.000108    0.54  0.000022  (-0.002373  0.004028 -0.000085)
 24:   3081.00   0.001499    7.58  0.000152  (-0.003109 -0.001150 -0.011870)
 25:   3081.50   0.000588    2.97  0.000060  (-0.003487  0.006816  0.000942)
 26:   3207.95   0.001208    6.11  0.000118  ( 0.001554  0.000819 -0.010698)
 27:   3224.93   0.000812    4.10  0.000079  ( 0.004373 -0.007711  0.000006)
 28:   3600.77   0.082078  414.79  0.007113  (-0.059820 -0.034490 -0.048429)
 29:   3610.34   0.015934   80.53  0.001377  ( 0.018213 -0.032331  0.000551)

* The epsilon (eps) is given for a Dirac delta lineshape.
** The dipole moment derivative (T) already includes vibrational overlap.

The first frequency considered to be a vibration is 6
The total number of vibrations considered is 24


--------------------------
THERMOCHEMISTRY AT 298.15K
--------------------------

Temperature         ... 298.15 K
Pressure            ... 1.00 atm
Total Mass          ... 62.07 AMU

Throughout the following assumptions are being made:
  (1) The electronic state is orbitally nondegenerate
      but the spin degeneracy is treated
  (2) There are no thermally accessible electronically excited states
  (3) Hindered rotations indicated by low frequency modes are not
      treated as such but are treated as vibrations and this may
      cause some error
  (4) All equations used are the standard statistical mechanics
      equations for an ideal gas
  (5) All vibrations are strictly harmonic

freq.     114.75  E(vib)   ...       0.44 
freq.     208.28  E(vib)   ...       0.34 
freq.     273.70  E(vib)   ...       0.28 
freq.     454.41  E(vib)   ...       0.16 
freq.     498.07  E(vib)   ...       0.14 
freq.     536.06  E(vib)   ...       0.12 
freq.     858.73  E(vib)   ...       0.04 
freq.     963.28  E(vib)   ...       0.03 
freq.    1087.77  E(vib)   ...       0.02 
freq.    1125.56  E(vib)   ...       0.01 
freq.    1149.28  E(vib)   ...       0.01 
freq.    1199.78  E(vib)   ...       0.01 
freq.    1239.90  E(vib)   ...       0.01 
freq.    1287.15  E(vib)   ...       0.01 
freq.    1361.18  E(vib)   ...       0.01 
freq.    1365.20  E(vib)   ...       0.01 
freq.    1514.98  E(vib)   ...       0.00 
freq.    1535.37  E(vib)   ...       0.00 
freq.    3081.00  E(vib)   ...       0.00 
freq.    3081.50  E(vib)   ...       0.00 
freq.    3207.95  E(vib)   ...       0.00 
freq.    3224.93  E(vib)   ...       0.00 
freq.    3600.77  E(vib)   ...       0.00 
freq.    3610.34  E(vib)   ...       0.00 

------------
INNER ENERGY
------------

The inner energy is: U= E(el) + E(ZPE) + E(vib) + E(rot) + E(trans)
    E(el)   - is the total energy from the electronic structure calculation
              = E(kin-el) + E(nuc-el) + E(el-el) + E(nuc-nuc)
    E(ZPE)  - the the zero temperature vibrational energy from the frequency calculation
    E(vib)  - the the finite temperature correction to E(ZPE) due to population
              of excited vibrational states
    E(rot)  - is the rotational thermal energy
    E(trans)- is the translational thermal energy

Summary of contributions to the inner energy U:
Electronic energy                ...   -229.77953720 Eh
Zero point energy                ...      0.08333530 Eh      52.29 kcal/mol
Thermal vibrational correction   ...      0.00263697 Eh       1.65 kcal/mol
Thermal rotational correction    ...      0.00141627 Eh       0.89 kcal/mol
Thermal translational correction ...      0.00141627 Eh       0.89 kcal/mol
-----------------------------------------------------------------------
Total thermal energy                   -229.69073239 Eh


Summary of corrections to the electronic energy:
(perhaps to be used in another calculation)
Total thermal correction                  0.00546952 Eh       3.43 kcal/mol
Non-thermal (ZPE) correction              0.08333530 Eh      52.29 kcal/mol
-----------------------------------------------------------------------
Total correction                          0.08880482 Eh      55.73 kcal/mol


--------
ENTHALPY
--------

The enthalpy is H = U + kB*T
                kB is Boltzmann's constant
Total free energy                 ...   -229.69073239 Eh 
Thermal Enthalpy correction       ...      0.00094421 Eh       0.59 kcal/mol
-----------------------------------------------------------------------
Total Enthalpy                    ...   -229.68978818 Eh


Note: Only C1 symmetry has been detected, increase convergence thresholds 
      if your molecule has a higher symmetry. Symmetry factor of 1.0 is   
      used for the rotational entropy correction. 
 

Note: Rotational entropy computed according to Herzberg 
Infrared and Raman Spectra, Chapter V,1, Van Nostrand Reinhold, 1945 
Point Group:  C1, Symmetry Number:   1  
Rotational constants in cm-1:     0.861876     0.122458     0.114254 

Vibrational entropy computed according to the QRRHO of S. Grimme
Chem.Eur.J. 2012 18 9955


-------
ENTROPY
-------

The entropy contributions are T*S = T*(S(el)+S(vib)+S(rot)+S(trans))
     S(el)   - electronic entropy
     S(vib)  - vibrational entropy
     S(rot)  - rotational entropy
     S(trans)- translational entropy
The entropies will be listed as multiplied by the temperature to get
units of energy

Electronic entropy                ...      0.00065446 Eh      0.41 kcal/mol
Vibrational entropy               ...      0.00441504 Eh      2.77 kcal/mol
Rotational entropy                ...      0.01159649 Eh      7.28 kcal/mol
Translational entropy             ...      0.01819577 Eh     11.42 kcal/mol
-----------------------------------------------------------------------
Final entropy term                ...      0.03486175 Eh     21.88 kcal/mol

In case the symmetry of your molecule has not been determined correctly
or in case you have a reason to use a different symmetry number we print 
out the resulting rotational entropy values for sn=1,12 :
 --------------------------------------------------------
|  sn= 1 | S(rot)=       0.01159649 Eh      7.28 kcal/mol|
|  sn= 2 | S(rot)=       0.01094203 Eh      6.87 kcal/mol|
|  sn= 3 | S(rot)=       0.01055920 Eh      6.63 kcal/mol|
|  sn= 4 | S(rot)=       0.01028757 Eh      6.46 kcal/mol|
|  sn= 5 | S(rot)=       0.01007689 Eh      6.32 kcal/mol|
|  sn= 6 | S(rot)=       0.00990474 Eh      6.22 kcal/mol|
|  sn= 7 | S(rot)=       0.00975919 Eh      6.12 kcal/mol|
|  sn= 8 | S(rot)=       0.00963312 Eh      6.04 kcal/mol|
|  sn= 9 | S(rot)=       0.00952191 Eh      5.98 kcal/mol|
|  sn=10 | S(rot)=       0.00942243 Eh      5.91 kcal/mol|
|  sn=11 | S(rot)=       0.00933244 Eh      5.86 kcal/mol|
|  sn=12 | S(rot)=       0.00925028 Eh      5.80 kcal/mol|
 --------------------------------------------------------


-------------------
GIBBS FREE ENERGY
-------------------

The Gibbs free energy is G = H - T*S

Total enthalpy                    ...   -229.68978818 Eh 
Total entropy correction          ...     -0.03486175 Eh    -21.88 kcal/mol
-----------------------------------------------------------------------
Final Gibbs free energy         ...   -229.72464993 Eh

For completeness - the Gibbs free energy minus the electronic energy
G-E(el)                           ...      0.05488728 Eh     34.44 kcal/mol


Timings for individual modules:

Sum of individual times         ...      301.157 sec (=   5.019 min)
GTO integral calculation        ...        1.028 sec (=   0.017 min)   0.3 %
SCF iterations                  ...      162.326 sec (=   2.705 min)  53.9 %
SCF Gradient evaluation         ...       47.209 sec (=   0.787 min)  15.7 %
Geometry relaxation             ...        0.427 sec (=   0.007 min)   0.1 %
Analytical frequency calculation...       90.167 sec (=   1.503 min)  29.9 %
                             ****ORCA TERMINATED NORMALLY****
TOTAL RUN TIME: 0 days 0 hours 5 minutes 2 seconds 226 msec
